      -----------------------------------------------------------      
     |                   =====================                   |     
     |                           x T B                           |     
     |                   =====================                   |     
     |                         S. Grimme                         |     
     |          Mulliken Center for Theoretical Chemistry        |     
     |                    University of Bonn                     |     
      -----------------------------------------------------------      

   * xtb version 6.7.1 (edcfbbe) compiled by 'conda@3ef47c1a292c' on 2024-11-25

   xtb is free software: you can redistribute it and/or modify it under
   the terms of the GNU Lesser General Public License as published by
   the Free Software Foundation, either version 3 of the License, or
   (at your option) any later version.
   
   xtb is distributed in the hope that it will be useful,
   but WITHOUT ANY WARRANTY; without even the implied warranty of
   MERCHANTABILITY or FITNESS FOR A PARTICULAR PURPOSE.  See the
   GNU Lesser General Public License for more details.
   
   Cite this work as:
   * C. Bannwarth, E. Caldeweyher, S. Ehlert, A. Hansen, P. Pracht,
     J. Seibert, S. Spicher, S. Grimme, WIREs Comput. Mol. Sci., 2020, 11,
     e01493. DOI: 10.1002/wcms.1493
   
   for GFN2-xTB:
   * C. Bannwarth, S. Ehlert and S. Grimme., J. Chem. Theory Comput., 2019,
     15, 1652-1671. DOI: 10.1021/acs.jctc.8b01176
   for GFN1-xTB:
   * S. Grimme, C. Bannwarth, P. Shushkov, J. Chem. Theory Comput., 2017,
     13, 1989-2009. DOI: 10.1021/acs.jctc.7b00118
   for GFN0-xTB:
   * P. Pracht, E. Caldeweyher, S. Ehlert, S. Grimme, ChemRxiv, 2019, preprint.
     DOI: 10.26434/chemrxiv.8326202.v1
   for GFN-FF:
   * S. Spicher and S. Grimme, Angew. Chem. Int. Ed., 2020, 59, 15665-15673.
     DOI: 10.1002/anie.202004239
   
   for ALPB and GBSA implicit solvation:
   * S. Ehlert, M. Stahn, S. Spicher, S. Grimme, J. Chem. Theory Comput.,
     2021, 17, 4250-4261. DOI: 10.1021/acs.jctc.1c00471
   
   for ddCOSMO and CPCM-X implicit solvation:
   * M. Stahn, S. Ehlert, S. Grimme, J. Phys. Chem. A,
     2023, XX, XXXX-XXXX. DOI: 10.1021/acs.jpca.3c04382
   
   for DFT-D4:
   * E. Caldeweyher, C. Bannwarth and S. Grimme, J. Chem. Phys., 2017,
     147, 034112. DOI: 10.1063/1.4993215
   * E. Caldeweyher, S. Ehlert, A. Hansen, H. Neugebauer, S. Spicher,
     C. Bannwarth and S. Grimme, J. Chem. Phys., 2019, 150, 154122.
     DOI: 10.1063/1.5090222
   * E. Caldeweyher, J.-M. Mewes, S. Ehlert and S. Grimme, Phys. Chem. Chem. Phys.
     2020, 22, 8499-8512. DOI: 10.1039/D0CP00502A
   
   for sTDA-xTB:
   * S. Grimme and C. Bannwarth, J. Chem. Phys., 2016, 145, 054103.
     DOI: 10.1063/1.4959605
   
   in the mass-spec context:
   * V. Asgeirsson, C. Bauer and S. Grimme, Chem. Sci., 2017, 8, 4879.
     DOI: 10.1039/c7sc00601b
   * J. Koopman and S. Grimme, ACS Omega 2019, 4, 12, 15120-15133.
     DOI: 10.1021/acsomega.9b02011
   
   for metadynamics refer to:
   * S. Grimme, J. Chem. Theory Comput., 2019, 155, 2847-2862
     DOI: 10.1021/acs.jctc.9b00143
   
   for SPH calculations refer to:
   * S. Spicher and S. Grimme, J. Chem. Theory Comput., 2021, 17, 1701-1714
     DOI: 10.1021/acs.jctc.0c01306
   
   for ONIOM refer to:
   * C. Plett, A. Katbashev, S. Ehlert, S. Grimme, M. Bursch,
     Phys. Chem. Chem. Phys., 2023, 25, 17860-17868. DOI: 10.1039/D3CP02178E
   
   for DIPRO refer to:
   * J. Kohn, N. Gildemeister, S. Grimme, D. Fazzi, A. Hansen,
     J. Chem. Phys., 2023, just accepted.
   
   for PTB refer to:
   * S. Grimme, M. Mueller, A. Hansen, J. Chem. Phys., 2023, 158, 124111.
     DOI: 10.1063/5.0137838
   
   with help from (in alphabetical order)
   P. Atkinson, C. Bannwarth, F. Bohle, G. Brandenburg, E. Caldeweyher
   M. Checinski, S. Dohm, S. Ehlert, S. Ehrlich, I. Gerasimov, C. Hölzer
   A. Katbashev, J. Kohn, J. Koopman, C. Lavigne, S. Lehtola, F. März, M. Müller,
   F. Musil, H. Neugebauer, J. Pisarek, C. Plett, P. Pracht, F. Pultar,
   J. Seibert, P. Shushkov, S. Spicher, M. Stahn, M. Steiner, T. Strunk,
   J. Stückrath, T. Rose, and J. Unsleber
   
 * started run on 2024/12/18 at 20:42:53.543     
   ID    Z sym.   atoms
    1    6 C      1-6, 10-15, 19-24, 28-33, 37, 39-44, 46, 59, 61-66, 68, 81,
                  83-88, 90, 103, 105-110, 112, 125, 127-132, 134, 147,
                  149-154, 156
    2    1 H      7-9, 16-18, 25-27, 34-36, 47-58, 69-80, 91-102, 113-124,
                  135-146, 157-168
    3    7 N      38, 45, 60, 67, 82, 89, 104, 111, 126, 133, 148, 155

           -------------------------------------------------
          |                Calculation Setup                |
           -------------------------------------------------

          program call               : /home/atarzia/miniforge3/envs/template/bin/xtb input_structure_ff.xyz --gfnff --opt normal --parallel 6 --chrg 0
          coordinate file            : input_structure_ff.xyz
          omp threads                :                     6


          ==================== Thresholds ====================
          CN  :   150.00000
          rep :   500.00000
          disp:  2500.00000
          HB1 :   250.00000
          HB2 :   450.00000

          Pauling EN used:
          Z : 1  EN :  2.20
          Z : 6  EN :  2.55
          Z : 7  EN :  3.04
          electric field strengths (au): 0.000

           ------------------------------------------------- 
          |           Force Field Initialization            |
           ------------------------------------------------- 

          distances ...
          ----------------------------------------
          generating topology and atomic info file ...
          pair mat ...
          computing topology distances matrix with Floyd-Warshall algo ...
          making topology EEQ charges ...
          #fragments for EEQ constrain: 1
          ----------------------------------------
          generating topology and atomic info file ...
          pair mat ...
          computing topology distances matrix with Floyd-Warshall algo ...
          making topology EEQ charges ...
          #fragments for EEQ constrain: 1
          rings ...
          # BATM   2208
          # H in HB   24
          doing iterative Hueckel for 4 subsystem(s) ...

  atom   neighbors  erfCN metchar sp-hybrid imet pi  qest     coordinates
    1  C       3    2.81   0.00         2    0    1  -0.027    0.517724   -2.132890    9.770640
    2  C       3    2.81   0.00         2    0    1  -0.000   -1.755238   -0.800392    9.770649
    3  C       3    2.81   0.00         2    0    1  -0.027   -1.772784    1.834261    9.770774
    4  C       3    2.75   0.00         2    0    1  -0.000    0.517553    3.136261    9.770649
    5  C       3    2.81   0.00         2    0    1  -0.027    2.808118    1.834197    9.770723
    6  C       3    2.77   0.00         2    0    1  -0.000    2.790557   -0.800331    9.770649
    7  H       1    0.97   0.00         0    0    0   0.045    0.517651   -4.186650    9.770570
    8  H       1    0.97   0.00         0    0    0   0.045   -3.551478    2.861144    9.770863
    9  H       1    0.97   0.00         0    0    0   0.045    4.586668    2.861229    9.770710
   10  C       3    2.81   0.00         2    0    1  -0.027   -7.686714   -0.630547   -1.206976
   11  C       3    2.69   0.00         2    0    1  -0.000   -6.917403   -2.831180    0.020742
   12  C       3    2.81   0.00         2    0    1  -0.027   -5.396387   -4.597804   -1.206961
   13  C       3    2.63   0.00         2    0    1  -0.000   -4.644576   -4.143419   -3.690739
   14  C       3    2.81   0.00         2    0    1  -0.027   -5.396383   -1.952951   -4.947205
   15  C       3    2.79   0.00         2    0    1  -0.000   -6.917369   -0.206704   -3.690913
   16  H       1    0.97   0.00         0    0    0   0.045   -8.872395    0.738616   -0.238739
   17  H       1    0.97   0.00         0    0    0   0.045   -4.803589   -6.309363   -0.238771
   18  H       1    0.97   0.00         0    0    0   0.045   -4.803415   -1.610786   -6.883528
   19  C       3    2.81   0.00         2    0    1  -0.027    5.447975   -5.760953   -0.106649
   20  C       3    2.77   0.00         2    0    1  -0.000    6.969123   -3.994393    1.121069
   21  C       3    2.81   0.00         2    0    1  -0.027    7.738557   -1.793843   -0.106633
   22  C       3    2.64   0.00         2    0    1  -0.000    6.969142   -1.369948   -2.590412
   23  C       3    2.84   0.00         2    0    1  -0.027    5.448045   -3.116266   -3.846876
   24  C       3    2.81   0.00         2    0    1  -0.000    4.696243   -5.306602   -2.590586
   25  H       1    0.97   0.00         0    0    0   0.045    4.855084   -7.472364    0.861589
   26  H       1    0.97   0.00         0    0    0   0.045    8.924411   -0.424686    0.861556
   27  H       1    0.97   0.00         0    0    0   0.045    4.855237   -2.773823   -5.783201
   28  C       3    2.81   0.00         2    0    1  -0.027    2.807296    8.567843   -1.204784
   29  C       3    2.76   0.00         2    0    1  -0.000    0.516836    9.001916    0.022932
   30  C       3    2.81   0.00         2    0    1  -0.027   -1.773612    8.567992   -1.204770
   31  C       3    2.72   0.00         2    0    1  -0.000   -1.756009    7.689711   -3.688549
   32  C       3    2.85   0.00         2    0    1  -0.027    0.516897    7.245561   -4.945013
   33  C       3    2.82   0.00         2    0    1  -0.000    2.789684    7.689649   -3.688723
   34  H       1    0.97   0.00         0    0    0   0.045    4.585868    8.910091   -0.236548
   35  H       1    0.97   0.00         0    0    0   0.045   -3.552266    8.910393   -0.236579
   36  H       1    0.97   0.00         0    0    0   0.045    0.516734    6.560953   -6.881336
   37  C       3    2.82   0.00         2    0    1   0.031   -4.015122   -2.195977    8.413216
   38  N       2    1.93   0.00         2    0    1  -0.239   -6.394263   -1.940957    8.824592
   39  C       4    3.52   0.00         3    0    0   0.044   -7.706730   -4.353319    9.317274
   40  C       4    3.49   0.00         3    0    0  -0.036   -9.509104   -3.942229   11.548130
   41  C       4    3.49   0.00         3    0    0  -0.038  -11.112945   -6.283885   12.061846
   42  C       4    3.49   0.00         3    0    0  -0.038  -12.545928   -7.131456    9.707391
   43  C       4    3.49   0.00         3    0    0  -0.036  -10.774593   -7.524275    7.465174
   44  C       4    3.52   0.00         3    0    0   0.044   -9.190451   -5.157951    6.931240
   45  N       2    1.93   0.00         2    0    1  -0.239   -7.395360   -5.776163    4.886448
   46  C       3    2.70   0.00         2    0    1   0.031   -7.206588   -4.038570    3.201576
   47  H       1    0.97   0.01         0    0    0   0.043   -2.990505   -4.011819    8.417061
   48  H       1    0.97   0.01         0    0    0   0.036   -6.369963   -5.857371    9.836325
   49  H       1    0.97   0.00         0    0    0   0.036   -8.425762   -3.456594   13.247156
   50  H       1    0.97   0.01         0    0    0   0.036  -10.752886   -2.326158   11.165426
   51  H       1    0.97   0.00         0    0    0   0.034  -12.454830   -5.887871   13.588397
   52  H       1    0.97   0.00         0    0    0   0.034   -9.891210   -7.825006   12.716799
   53  H       1    0.97   0.00         0    0    0   0.034  -13.563693   -8.889682   10.107491
   54  H       1    0.97   0.00         0    0    0   0.034  -13.970585   -5.707355    9.218095
   55  H       1    0.97   0.00         0    0    0   0.036   -9.529229   -9.139294    7.846585
   56  H       1    0.97   0.00         0    0    0   0.036  -11.881277   -8.023320    5.785538
   57  H       1    0.97   0.01         0    0    0   0.036  -10.482611   -3.628204    6.375526
   58  H       1    0.97   0.01         0    0    0   0.043   -8.258194   -2.238133    3.219428
   59  C       3    2.79   0.00         2    0    1   0.031    5.139802   -2.887318    9.161988
   60  N       2    1.93   0.00         2    0    1  -0.239    6.108523   -5.075222    9.573366
   61  C       4    3.52   0.00         3    0    0   0.044    8.853922   -5.005665   10.066046
   62  C       4    3.49   0.00         3    0    0  -0.036    9.399101   -6.772106   12.296903
   63  C       4    3.49   0.00         3    0    0  -0.038   12.228956   -6.990239   12.810618
   64  C       4    3.49   0.00         3    0    0  -0.038   13.679467   -7.807453   10.456163
   65  C       4    3.49   0.00         3    0    0  -0.036   13.133984   -6.077027    8.213944
   66  C       4    3.52   0.00         3    0    0   0.044   10.292614   -5.888286    7.680011
   67  N       2    1.93   0.00         2    0    1  -0.239    9.930452   -4.024591    5.635218
   68  C       3    2.78   0.00         2    0    1   0.031    8.331266   -4.729911    3.950348
   69  H       1    0.97   0.01         0    0    0   0.043    6.200053   -1.092050    9.165829
   70  H       1    0.97   0.01         0    0    0   0.036    9.488084   -3.095961   10.585093
   71  H       1    0.97   0.00         0    0    0   0.036    8.436858   -6.076720   13.995930
   72  H       1    0.97   0.01         0    0    0   0.036    8.621439   -8.657289   11.914202
   73  H       1    0.97   0.00         0    0    0   0.034   12.556945   -8.350348   14.337171
   74  H       1    0.97   0.00         0    0    0   0.034   12.952735   -5.161621   13.465567
   75  H       1    0.97   0.00         0    0    0   0.034   15.711019   -7.809745   10.856261
   76  H       1    0.97   0.00         0    0    0   0.034   13.158490   -9.753294    9.966871
   77  H       1    0.97   0.00         0    0    0   0.036   13.909945   -4.190999    8.595351
   78  H       1    0.97   0.00         0    0    0   0.036   14.119512   -6.785920    6.534308
   79  H       1    0.97   0.01         0    0    0   0.036    9.613900   -7.772207    7.124302
   80  H       1    0.97   0.01         0    0    0   0.043    7.297850   -6.540850    3.968204
   81  C       3    2.76   0.00         2    0    1   0.031    0.161891    6.088025    8.358357
   82  N       2    1.93   0.00         2    0    1  -0.239    1.572313    8.020912    8.769735
   83  C       4    3.52   0.00         3    0    0   0.044    0.139375   10.363721    9.262415
   84  C       4    3.49   0.00         3    0    0  -0.036    1.396568   11.719080   11.493275
   85  C       4    3.49   0.00         3    0    0  -0.038    0.170552   14.278873   12.006987
   86  C       4    3.49   0.00         3    0    0  -0.038    0.153024   15.943659    9.652534
   87  C       4    3.49   0.00         3    0    0  -0.036   -1.072828   14.606045    7.410315
   88  C       4    3.52   0.00         3    0    0   0.044    0.184401   12.050976    6.876381
   89  N       2    1.93   0.00         2    0    1  -0.239   -1.248527   10.805486    4.831589
   90  C       3    2.77   0.00         2    0    1   0.031    0.161891    9.773210    3.146717
   91  H       1    0.97   0.01         0    0    0   0.043   -1.922982    6.108596    8.362201
   92  H       1    0.97   0.01         0    0    0   0.036   -1.831558    9.958071    9.781464
   93  H       1    0.97   0.00         0    0    0   0.036    1.275471   10.538062   13.192299
   94  H       1    0.97   0.01         0    0    0   0.036    3.418018   11.988196   11.110571
   95  H       1    0.97   0.00         0    0    0   0.034    1.184446   15.242973   13.533540
   96  H       1    0.97   0.00         0    0    0   0.034   -1.774967   13.991375   12.661938
   97  H       1    0.97   0.00         0    0    0   0.034   -0.860766   17.704181   10.052632
   98  H       1    0.97   0.00         0    0    0   0.034    2.098660   16.465399    9.163240
   99  H       1    0.97   0.00         0    0    0   0.036   -3.094158   14.335032    7.791723
  100  H       1    0.97   0.00         0    0    0   0.036   -0.951674   15.813982    5.730680
  101  H       1    0.97   0.01         0    0    0   0.036    2.155282   12.405151    6.320671
  102  H       1    0.97   0.01         0    0    0   0.043    2.246918    9.783713    3.164573
  103  C       3    2.64   0.00         2    0    1   0.031   -2.846249   -6.991873   -4.709670
  104  N       2    1.93   0.00         2    0    1  -0.239   -2.066183   -7.660079   -6.909574
  105  C       4    3.52   0.00         3    0    0   0.044   -1.115834  -10.281509   -7.008229
  106  C       4    3.49   0.00         3    0    0  -0.036   -2.154806  -11.510870   -9.417269
  107  C       4    3.49   0.00         3    0    0  -0.038   -1.096355  -14.167405   -9.794175
  108  C       4    3.49   0.00         3    0    0  -0.038    1.787214  -14.177481   -9.779832
  109  C       4    3.49   0.00         3    0    0  -0.036    2.845706  -12.936500   -7.400961
  110  C       4    3.52   0.00         3    0    0   0.044    1.806491  -10.255561   -7.045029
  111  N       2    1.93   0.00         2    0    1  -0.239    2.756974   -9.288618   -4.606319
  112  C       3    2.85   0.00         2    0    1   0.031    3.536681   -6.991873   -4.709670
  113  H       1    0.97   0.01         0    0    0   0.043   -2.837509   -8.211106   -3.018359
  114  H       1    0.97   0.01         0    0    0   0.036   -1.773839  -11.393678   -5.380763
  115  H       1    0.97   0.00         0    0    0   0.036   -4.223916  -11.594369   -9.327996
  116  H       1    0.97   0.01         0    0    0   0.036   -1.686957  -10.342783  -11.067068
  117  H       1    0.97   0.00         0    0    0   0.034   -1.786154  -14.944385  -11.585350
  118  H       1    0.97   0.00         0    0    0   0.034   -1.797105  -15.407736   -8.288458
  119  H       1    0.97   0.00         0    0    0   0.034    2.476974  -16.125082   -9.915367
  120  H       1    0.97   0.00         0    0    0   0.034    2.487947  -13.171336  -11.451289
  121  H       1    0.97   0.00         0    0    0   0.036    2.377820  -14.102642   -5.749936
  122  H       1    0.97   0.00         0    0    0   0.036    4.914528  -12.880056   -7.509433
  123  H       1    0.97   0.01         0    0    0   0.036    2.464711   -9.091820   -8.635965
  124  H       1    0.97   0.01         0    0    0   0.043    3.528166   -5.803496   -6.422988
  125  C       3    2.80   0.00         2    0    1   0.031   -7.827378    2.238182   -5.420112
  126  N       2    1.93   0.00         2    0    1  -0.239   -9.426455    4.062151   -5.316803
  127  C       4    3.52   0.00         3    0    0   0.044   -9.788572    5.368589   -7.755428
  128  C       4    3.49   0.00         3    0    0  -0.036  -12.629915    5.809339   -8.111470
  129  C       4    3.49   0.00         3    0    0  -0.038  -13.175305    7.346414  -10.490442
  130  C       4    3.49   0.00         3    0    0  -0.038  -11.724719    9.838576  -10.504723
  131  C       4    3.49   0.00         3    0    0  -0.036   -8.894894    9.427016  -10.127668
  132  C       4    3.52   0.00         3    0    0   0.044   -8.349965    7.912419   -7.718698
  133  N       2    1.93   0.00         2    0    1  -0.239   -5.604393    7.424787   -7.619958
  134  C       3    2.73   0.00         2    0    1   0.031   -4.635914    7.765962   -5.420112
  135  H       1    0.97   0.01         0    0    0   0.043   -6.794021    1.651664   -7.133385
  136  H       1    0.97   0.01         0    0    0   0.036   -9.109807    4.216907   -9.346480
  137  H       1    0.97   0.00         0    0    0   0.036  -13.615685    3.989270   -8.219951
  138  H       1    0.97   0.01         0    0    0   0.036  -13.405849    6.797549   -6.460257
  139  H       1    0.97   0.00         0    0    0   0.034  -15.206989    7.722895  -10.625930
  140  H       1    0.97   0.00         0    0    0   0.034  -12.654319    6.236465  -12.161743
  141  H       1    0.97   0.00         0    0    0   0.034  -12.052726   10.824414  -12.295762
  142  H       1    0.97   0.00         0    0    0   0.034  -12.448643   11.065671   -8.998968
  143  H       1    0.97   0.00         0    0    0   0.036   -8.117415    8.437869  -11.777459
  144  H       1    0.97   0.00         0    0    0   0.036   -7.932755   11.260394  -10.038295
  145  H       1    0.97   0.01         0    0    0   0.036   -8.983909    9.038473   -6.091201
  146  H       1    0.97   0.01         0    0    0   0.043   -5.696037    8.368191   -3.728596
  147  C       3    2.65   0.00         2    0    1   0.031    7.983662    0.895061   -5.048643
  148  N       2    1.93   0.00         2    0    1  -0.239    8.172311    1.904721   -7.248547
  149  C       4    3.52   0.00         3    0    0   0.044    9.967362    4.038464   -7.347202
  150  C       4    3.49   0.00         3    0    0  -0.036   11.551505    3.753366   -9.756242
  151  C       4    3.49   0.00         3    0    0  -0.038   13.322907    5.998282  -10.133146
  152  C       4    3.49   0.00         3    0    0  -0.038   11.889849    8.500563  -10.118805
  153  C       4    3.49   0.00         3    0    0  -0.036   10.285881    8.796753   -7.739935
  154  C       4    3.52   0.00         3    0    0   0.044    8.483729    6.556297   -7.384003
  155  N       2    1.93   0.00         2    0    1  -0.239    7.171089    6.895968   -4.945292
  156  C       3    2.87   0.00         2    0    1   0.031    4.792196    6.422841   -5.048643
  157  H       1    0.97   0.01         0    0    0   0.043    9.035179    1.512248   -3.357333
  158  H       1    0.97   0.01         0    0    0   0.036   11.259532    4.024699   -5.719736
  159  H       1    0.97   0.00         0    0    0   0.036   12.658374    2.003216   -9.666970
  160  H       1    0.97   0.01         0    0    0   0.036   10.305990    3.574493  -11.406039
  161  H       1    0.97   0.00         0    0    0   0.034   14.340693    5.789386  -11.924323
  162  H       1    0.97   0.00         0    0    0   0.034   14.747442    6.011580   -8.627431
  163  H       1    0.97   0.00         0    0    0   0.034   13.231643   10.071711  -10.254338
  164  H       1    0.97   0.00         0    0    0   0.034   10.668135    8.604343  -11.790262
  165  H       1    0.97   0.00         0    0    0   0.036   11.529735    8.974621   -6.088909
  166  H       1    0.97   0.00         0    0    0   0.036    9.202588   10.560181   -7.848407
  167  H       1    0.97   0.01         0    0    0   0.036    7.146789    6.544462   -8.974939
  168  H       1    0.97   0.01         0    0    0   0.043    3.767290    5.821279   -6.761962

          #atoms :   168
          #bonds :   180
          #angl  :   336
          #tors  :   564
          #nmol  :   1
          #optfrag :   1
           ------------------------------------------------- 
          |                   G F N - F F                   |
          |          A general generic force-field          |
          |                  Version 1.0.3                  | 
           ------------------------------------------------- 
          Number of HB bonds (bound hydrogen)     39216
          Number of HB bonds (unbound hydrogen)   4704
          Number of XB bonds                      0

 E+G (total)                   0 d,  0 h,  0 min,  0.028 sec
 distance/D3 list               ...        0 min,  0.000 sec (  0.351%)
 non bonded repulsion           ...        0 min,  0.003 sec (  9.138%)
 dCN                            ...        0 min,  0.001 sec (  1.811%)
 EEQ energy and q               ...        0 min,  0.001 sec (  3.197%)
 D3                             ...        0 min,  0.002 sec (  8.319%)
 EEQ gradient                   ...        0 min,  0.001 sec (  2.923%)
 bonds                          ...        0 min,  0.005 sec ( 18.008%)
 bend and torsion               ...        0 min,  0.001 sec (  2.279%)
 bonded ATM                     ...        0 min,  0.002 sec (  6.196%)
 HB/XB (incl list setup)        ...        0 min,  0.013 sec ( 47.453%)

         :::::::::::::::::::::::::::::::::::::::::::::::::::::
         ::                     SUMMARY                     ::
         :::::::::::::::::::::::::::::::::::::::::::::::::::::
         :: total energy             -30.411321366442 Eh    ::
         :: gradient norm              0.537600137502 Eh/a0 ::
         ::.................................................::
         :: bond energy              -32.222123047427 Eh    ::
         :: angle energy               0.222033226282 Eh    ::
         :: torsion energy             0.118585182418 Eh    ::
         :: repulsion energy           1.889127348122 Eh    ::
         :: electrostat energy        -0.232496629555 Eh    ::
         :: dispersion energy         -0.164427917943 Eh    ::
         :: HB energy                 -0.003817730906 Eh    ::
         :: XB energy                  0.000000000000 Eh    ::
         :: bonded atm energy         -0.018201797434 Eh    ::
         :: external energy            0.000000000000 Eh    ::
         :: add. restraining           0.000000000000 Eh    ::
         :: total charge               0.000000000000 e     ::
         :::::::::::::::::::::::::::::::::::::::::::::::::::::

      ----------------------------------------------------------- 
     |                   =====================                   |
     |                        A N C O P T                        |
     |                   =====================                   |
     |               Approximate Normal Coordinate               |
     |                Rational Function Optimizer                |
      ----------------------------------------------------------- 
      ----------------------------------------------------------- 
     |                   =====================                   |
     |                        A N C O P T                        |
     |                   =====================                   |
     |               Approximate Normal Coordinate               |
     |                Rational Function Optimizer                |
      ----------------------------------------------------------- 

          ...................................................
          :                      SETUP                      :
          :.................................................:
          :   optimization level            normal          :
          :   max. optcycles                   504          :
          :   ANC micro-cycles                  20          :
          :   degrees of freedom               498          :
          :.................................................:
          :   RF solver                   davidson          :
          :   write xtbopt.log                true          :
          :   linear?                        false          :
          :   energy convergence         0.5000000E-05 Eh   :
          :   grad. convergence          0.1000000E-02 Eh/α :
          :   maxmium RF displ.          1.0000000          :
          :   Hlow (freq-cutoff)         0.1000000E-01      :
          :   Hmax (freq-cutoff)         5.0000000          :
          :   S6 in model hess.         20.0000000          :
          ...................................................

generating ANC from exact Hessian ...
Using GFN-FF Lindh-Hessian
 Shifting diagonal of input Hessian by    9.8741102882352345E-003
 Lowest  eigenvalues of input Hessian
    0.000000    0.000000    0.000000    0.000000    0.000000    0.000000
    0.010000    0.010006    0.010031    0.010044    0.010057    0.010119
    0.010134    0.010144    0.010174    0.010179    0.010217    0.010629
 Highest eigenvalues
    2.533634    2.548433    2.555127    2.569696    2.660629    2.701177


........................................................................
.............................. CYCLE    1 ..............................
........................................................................
     iter. time                 ...        0 min,  0.060 sec
 * total energy  :   -30.4113214 Eh     change       -0.7105427E-14 Eh
   gradient norm :     0.5376001 Eh/α   predicted     0.0000000E+00 (-100.00%)
   displ. norm   :     0.6132238 α      lambda       -0.2586513E+00
   maximum displ.:     0.1059113 α      in ANC's #114, #324, #152, ...

........................................................................
.............................. CYCLE    2 ..............................
........................................................................
     iter. time                 ...        0 min,  0.051 sec
 * total energy  :   -30.6372003 Eh     change       -0.2258789E+00 Eh
   gradient norm :     0.3805499 Eh/α   predicted    -0.1780542E+00 ( -21.17%)
   displ. norm   :     0.7321558 α      lambda       -0.2441993E+00
   maximum displ.:     0.1337010 α      in ANC's #324, #339, #152, ...

........................................................................
.............................. CYCLE    3 ..............................
........................................................................
     iter. time                 ...        0 min,  0.037 sec
 * total energy  :   -30.8200582 Eh     change       -0.1828579E+00 Eh
   gradient norm :     0.1701234 Eh/α   predicted    -0.1875823E+00 (   2.58%)
   displ. norm   :     0.7147662 α      lambda       -0.1083446E+00
   maximum displ.:     0.1584946 α      in ANC's #43, #91, #79, ...

........................................................................
.............................. CYCLE    4 ..............................
........................................................................
     iter. time                 ...        0 min,  0.020 sec
 * total energy  :   -30.9029747 Eh     change       -0.8291658E-01 Eh
   gradient norm :     0.1067912 Eh/α   predicted    -0.8184845E-01 (  -1.29%)
   displ. norm   :     0.7375090 α      lambda       -0.6240567E-01
   maximum displ.:     0.2466770 α      in ANC's #43, #42, #79, ...

........................................................................
.............................. CYCLE    5 ..............................
........................................................................
     iter. time                 ...        0 min,  0.019 sec
 * total energy  :   -30.9546591 Eh     change       -0.5168438E-01 Eh
   gradient norm :     0.0810486 Eh/α   predicted    -0.4817468E-01 (  -6.79%)
   displ. norm   :     0.7915044 α      lambda       -0.4605676E-01
   maximum displ.:     0.3224745 α      in ANC's #43, #42, #79, ...

........................................................................
.............................. CYCLE    6 ..............................
........................................................................
     iter. time                 ...        0 min,  0.019 sec
 * total energy  :   -30.9937894 Eh     change       -0.3913026E-01 Eh
   gradient norm :     0.0539914 Eh/α   predicted    -0.3745520E-01 (  -4.28%)
   displ. norm   :     0.8376188 α      lambda       -0.3501456E-01
   maximum displ.:     0.3868150 α      in ANC's #43, #42, #36, ...

........................................................................
.............................. CYCLE    7 ..............................
........................................................................
     iter. time                 ...        0 min,  0.023 sec
 * total energy  :   -31.0247309 Eh     change       -0.3094155E-01 Eh
   gradient norm :     0.0429951 Eh/α   predicted    -0.2979057E-01 (  -3.72%)
   displ. norm   :     0.8684886 α      lambda       -0.2900462E-01
   maximum displ.:     0.4239731 α      in ANC's #43, #42, #36, ...

........................................................................
.............................. CYCLE    8 ..............................
........................................................................
     iter. time                 ...        0 min,  0.025 sec
 * total energy  :   -31.0509317 Eh     change       -0.2620073E-01 Eh
   gradient norm :     0.0360095 Eh/α   predicted    -0.2544101E-01 (  -2.90%)
   displ. norm   :     0.8827925 α      lambda       -0.2468786E-01
   maximum displ.:     0.4403731 α      in ANC's #43, #42, #36, ...

........................................................................
.............................. CYCLE    9 ..............................
........................................................................
     iter. time                 ...        0 min,  0.021 sec
 * total energy  :   -31.0733754 Eh     change       -0.2244370E-01 Eh
   gradient norm :     0.0305122 Eh/α   predicted    -0.2196383E-01 (  -2.14%)
   displ. norm   :     0.8857535 α      lambda       -0.2097755E-01
   maximum displ.:     0.4443101 α      in ANC's #43, #42, #36, ...

........................................................................
.............................. CYCLE   10 ..............................
........................................................................
     iter. time                 ...        0 min,  0.023 sec
 * total energy  :   -31.0924679 Eh     change       -0.1909254E-01 Eh
   gradient norm :     0.0268392 Eh/α   predicted    -0.1871784E-01 (  -1.96%)
   displ. norm   :     0.8836911 α      lambda       -0.1775480E-01
   maximum displ.:     0.4442281 α      in ANC's #43, #42, #36, ...

........................................................................
.............................. CYCLE   11 ..............................
........................................................................
     iter. time                 ...        0 min,  0.028 sec
 * total energy  :   -31.1085797 Eh     change       -0.1611178E-01 Eh
   gradient norm :     0.0230027 Eh/α   predicted    -0.1580985E-01 (  -1.87%)
   displ. norm   :     0.8787137 α      lambda       -0.1480484E-01
   maximum displ.:     0.4416577 α      in ANC's #43, #42, #17, ...

........................................................................
.............................. CYCLE   12 ..............................
........................................................................
     iter. time                 ...        0 min,  0.024 sec
 * total energy  :   -31.1219167 Eh     change       -0.1333702E-01 Eh
   gradient norm :     0.0185035 Eh/α   predicted    -0.1311811E-01 (  -1.64%)
   displ. norm   :     0.8709449 α      lambda       -0.1202594E-01
   maximum displ.:     0.4335425 α      in ANC's #43, #42, #17, ...

........................................................................
.............................. CYCLE   13 ..............................
........................................................................
     iter. time                 ...        0 min,  0.018 sec
 * total energy  :   -31.1326461 Eh     change       -0.1072942E-01 Eh
   gradient norm :     0.0143695 Eh/α   predicted    -0.1057408E-01 (  -1.45%)
   displ. norm   :     0.8591184 α      lambda       -0.9492684E-02
   maximum displ.:     0.4142496 α      in ANC's #43, #42, #17, ...

........................................................................
.............................. CYCLE   14 ..............................
........................................................................
     iter. time                 ...        0 min,  0.009 sec
 * total energy  :   -31.1410205 Eh     change       -0.8374396E-02 Eh
   gradient norm :     0.0114114 Eh/α   predicted    -0.8249551E-02 (  -1.49%)
   displ. norm   :     0.8431594 α      lambda       -0.7295032E-02
   maximum displ.:     0.3812488 α      in ANC's #43, #17, #42, ...

........................................................................
.............................. CYCLE   15 ..............................
........................................................................
     iter. time                 ...        0 min,  0.009 sec
 * total energy  :   -31.1473773 Eh     change       -0.6356766E-02 Eh
   gradient norm :     0.0097644 Eh/α   predicted    -0.6240610E-02 (  -1.83%)
   displ. norm   :     0.8239914 α      lambda       -0.5490460E-02
   maximum displ.:     0.3587499 α      in ANC's #17, #43, #16, ...

........................................................................
.............................. CYCLE   16 ..............................
........................................................................
     iter. time                 ...        0 min,  0.009 sec
 * total energy  :   -31.1521038 Eh     change       -0.4726497E-02 Eh
   gradient norm :     0.0089434 Eh/α   predicted    -0.4609139E-02 (  -2.48%)
   displ. norm   :     0.8028241 α      lambda       -0.4112314E-02
   maximum displ.:     0.3890765 α      in ANC's #17, #16, #43, ...

........................................................................
.............................. CYCLE   17 ..............................
........................................................................
     iter. time                 ...        0 min,  0.011 sec
 * total energy  :   -31.1556042 Eh     change       -0.3500443E-02 Eh
   gradient norm :     0.0083402 Eh/α   predicted    -0.3381415E-02 (  -3.40%)
   displ. norm   :     0.7805290 α      lambda       -0.3143586E-02
   maximum displ.:     0.4040362 α      in ANC's #17, #16, #18, ...

........................................................................
.............................. CYCLE   18 ..............................
........................................................................
     iter. time                 ...        0 min,  0.009 sec
 * total energy  :   -31.1582465 Eh     change       -0.2642301E-02 Eh
   gradient norm :     0.0092413 Eh/α   predicted    -0.2529380E-02 (  -4.27%)
   displ. norm   :     0.7620080 α      lambda       -0.2543586E-02
   maximum displ.:     0.4068443 α      in ANC's #17, #16, #18, ...

........................................................................
.............................. CYCLE   19 ..............................
........................................................................
     iter. time                 ...        0 min,  0.015 sec
 * total energy  :   -31.1603955 Eh     change       -0.2148945E-02 Eh
   gradient norm :     0.0075401 Eh/α   predicted    -0.2010268E-02 (  -6.45%)
   displ. norm   :     0.7580222 α      lambda       -0.2145254E-02
   maximum displ.:     0.4116038 α      in ANC's #17, #16, #18, ...

........................................................................
.............................. CYCLE   20 ..............................
........................................................................
     iter. time                 ...        0 min,  0.020 sec
 * total energy  :   -31.1622824 Eh     change       -0.1886914E-02 Eh
   gradient norm :     0.0074279 Eh/α   predicted    -0.1688956E-02 ( -10.49%)
   displ. norm   :     0.7844466 α      lambda       -0.2022753E-02
   maximum displ.:     0.4178329 α      in ANC's #17, #16, #18, ...
 * RMSD in coord.:     1.0062777 α      energy gain  -0.7509610E+00 Eh

generating ANC from exact Hessian ...
Using GFN-FF Lindh-Hessian
 Shifting diagonal of input Hessian by    9.7058854635004299E-003
 Lowest  eigenvalues of input Hessian
    0.000000    0.000000    0.000000    0.000000    0.000000    0.000000
    0.010000    0.010005    0.010033    0.010114    0.010143    0.010205
    0.010228    0.010241    0.010654    0.010678    0.010695    0.011286
 Highest eigenvalues
    2.968962    2.969450    2.970066    2.972984    2.974592    2.976656


........................................................................
.............................. CYCLE   21 ..............................
........................................................................
     iter. time                 ...        0 min,  0.043 sec
 * total energy  :   -31.1640811 Eh     change       -0.1798682E-02 Eh
   gradient norm :     0.0073867 Eh/α   predicted     0.0000000E+00 (-100.00%)
   displ. norm   :     0.1900359 α      lambda       -0.5730569E-03
   maximum displ.:     0.1328536 α      in ANC's #12, #13, #18, ...

........................................................................
.............................. CYCLE   22 ..............................
........................................................................
     iter. time                 ...        0 min,  0.047 sec
 * total energy  :   -31.1646212 Eh     change       -0.5401640E-03 Eh
   gradient norm :     0.0047766 Eh/α   predicted    -0.2972649E-03 ( -44.97%)
   displ. norm   :     0.6197481 α      lambda       -0.1650646E-02
   maximum displ.:     0.3944799 α      in ANC's #12, #13, #18, ...

........................................................................
.............................. CYCLE   23 ..............................
........................................................................
     iter. time                 ...        0 min,  0.020 sec
 * total energy  :   -31.1660538 Eh     change       -0.1432550E-02 Eh
   gradient norm :     0.0063009 Eh/α   predicted    -0.1142433E-02 ( -20.25%)
   displ. norm   :     0.7342090 α      lambda       -0.1543378E-02
   maximum displ.:     0.4713056 α      in ANC's #12, #13, #18, ...

........................................................................
.............................. CYCLE   24 ..............................
........................................................................
     iter. time                 ...        0 min,  0.021 sec
 * total energy  :   -31.1674123 Eh     change       -0.1358535E-02 Eh
   gradient norm :     0.0096747 Eh/α   predicted    -0.1187710E-02 ( -12.57%)
   displ. norm   :     0.7355960 α      lambda       -0.1359681E-02
   maximum displ.:     0.4792411 α      in ANC's #12, #13, #18, ...

........................................................................
.............................. CYCLE   25 ..............................
........................................................................
     iter. time                 ...        0 min,  0.022 sec
 * total energy  :   -31.1686232 Eh     change       -0.1210831E-02 Eh
   gradient norm :     0.0097892 Eh/α   predicted    -0.1047704E-02 ( -13.47%)
   displ. norm   :     0.7242242 α      lambda       -0.1253992E-02
   maximum displ.:     0.4792832 α      in ANC's #12, #13, #18, ...

........................................................................
.............................. CYCLE   26 ..............................
........................................................................
     iter. time                 ...        0 min,  0.037 sec
 * total energy  :   -31.1697200 Eh     change       -0.1096848E-02 Eh
   gradient norm :     0.0093309 Eh/α   predicted    -0.9558878E-03 ( -12.85%)
   displ. norm   :     0.7271252 α      lambda       -0.1121896E-02
   maximum displ.:     0.4870661 α      in ANC's #12, #18, #13, ...

........................................................................
.............................. CYCLE   27 ..............................
........................................................................
     iter. time                 ...        0 min,  0.018 sec
 * total energy  :   -31.1706807 Eh     change       -0.9606821E-03 Eh
   gradient norm :     0.0097922 Eh/α   predicted    -0.8575331E-03 ( -10.74%)
   displ. norm   :     0.7250533 α      lambda       -0.9554521E-03
   maximum displ.:     0.4868027 α      in ANC's #12, #18, #13, ...

........................................................................
.............................. CYCLE   28 ..............................
........................................................................
     iter. time                 ...        0 min,  0.018 sec
 * total energy  :   -31.1714864 Eh     change       -0.8057019E-03 Eh
   gradient norm :     0.0088533 Eh/α   predicted    -0.7288678E-03 (  -9.54%)
   displ. norm   :     0.7028481 α      lambda       -0.7659178E-03
   maximum displ.:     0.4696043 α      in ANC's #12, #18, #13, ...

........................................................................
.............................. CYCLE   29 ..............................
........................................................................
     iter. time                 ...        0 min,  0.021 sec
 * total energy  :   -31.1721215 Eh     change       -0.6350978E-03 Eh
   gradient norm :     0.0069720 Eh/α   predicted    -0.5721395E-03 (  -9.91%)
   displ. norm   :     0.6825356 α      lambda       -0.5811922E-03
   maximum displ.:     0.4553628 α      in ANC's #12, #18, #13, ...

........................................................................
.............................. CYCLE   30 ..............................
........................................................................
     iter. time                 ...        0 min,  0.020 sec
 * total energy  :   -31.1725996 Eh     change       -0.4781488E-03 Eh
   gradient norm :     0.0062336 Eh/α   predicted    -0.4259725E-03 ( -10.91%)
   displ. norm   :     0.6431898 α      lambda       -0.4405423E-03
   maximum displ.:     0.4314076 α      in ANC's #12, #18, #13, ...

........................................................................
.............................. CYCLE   31 ..............................
........................................................................
     iter. time                 ...        0 min,  0.024 sec
 * total energy  :   -31.1729614 Eh     change       -0.3617459E-03 Eh
   gradient norm :     0.0057873 Eh/α   predicted    -0.3113987E-03 ( -13.92%)
   displ. norm   :     0.5996082 α      lambda       -0.3280637E-03
   maximum displ.:     0.4075136 α      in ANC's #12, #18, #13, ...

........................................................................
.............................. CYCLE   32 ..............................
........................................................................
     iter. time                 ...        0 min,  0.026 sec
 * total energy  :   -31.1732253 Eh     change       -0.2639072E-03 Eh
   gradient norm :     0.0052481 Eh/α   predicted    -0.2230125E-03 ( -15.50%)
   displ. norm   :     0.5117938 α      lambda       -0.2513186E-03
   maximum displ.:     0.3526613 α      in ANC's #12, #18, #7, ...

........................................................................
.............................. CYCLE   33 ..............................
........................................................................
     iter. time                 ...        0 min,  0.024 sec
 * total energy  :   -31.1734051 Eh     change       -0.1797995E-03 Eh
   gradient norm :     0.0047066 Eh/α   predicted    -0.1585741E-03 ( -11.81%)
   displ. norm   :     0.5669621 α      lambda       -0.1946741E-03
   maximum displ.:     0.4028539 α      in ANC's #12, #18, #13, ...

........................................................................
.............................. CYCLE   34 ..............................
........................................................................
     iter. time                 ...        0 min,  0.024 sec
 * total energy  :   -31.1734958 Eh     change       -0.9075754E-04 Eh
   gradient norm :     0.0049787 Eh/α   predicted    -0.1286273E-03 (  41.73%)
   displ. norm   :     0.1629129 α      lambda       -0.9836650E-04
   maximum displ.:     0.1135356 α      in ANC's #12, #7, #18, ...

........................................................................
.............................. CYCLE   35 ..............................
........................................................................
     iter. time                 ...        0 min,  0.023 sec
 * total energy  :   -31.1735627 Eh     change       -0.6685046E-04 Eh
   gradient norm :     0.0030861 Eh/α   predicted    -0.5049078E-04 ( -24.47%)
   displ. norm   :     0.1784015 α      lambda       -0.5730259E-04
   maximum displ.:     0.1315205 α      in ANC's #12, #7, #10, ...

........................................................................
.............................. CYCLE   36 ..............................
........................................................................
     iter. time                 ...        0 min,  0.025 sec
 * total energy  :   -31.1736075 Eh     change       -0.4482454E-04 Eh
   gradient norm :     0.0031374 Eh/α   predicted    -0.2956904E-04 ( -34.03%)
   displ. norm   :     0.2399750 α      lambda       -0.8118113E-04
   maximum displ.:     0.1710064 α      in ANC's #12, #7, #10, ...

........................................................................
.............................. CYCLE   37 ..............................
........................................................................
     iter. time                 ...        0 min,  0.015 sec
 * total energy  :   -31.1736677 Eh     change       -0.6018635E-04 Eh
   gradient norm :     0.0035356 Eh/α   predicted    -0.4293122E-04 ( -28.67%)
   displ. norm   :     0.2549049 α      lambda       -0.7088610E-04
   maximum displ.:     0.1766185 α      in ANC's #12, #7, #10, ...

........................................................................
.............................. CYCLE   38 ..............................
........................................................................
     iter. time                 ...        0 min,  0.011 sec
 * total energy  :   -31.1737206 Eh     change       -0.5289707E-04 Eh
   gradient norm :     0.0037595 Eh/α   predicted    -0.3775350E-04 ( -28.63%)
   displ. norm   :     0.2389158 α      lambda       -0.6723186E-04
   maximum displ.:     0.1464493 α      in ANC's #12, #7, #18, ...

........................................................................
.............................. CYCLE   39 ..............................
........................................................................
     iter. time                 ...        0 min,  0.021 sec
 * total energy  :   -31.1737719 Eh     change       -0.5129321E-04 Eh
   gradient norm :     0.0037425 Eh/α   predicted    -0.3553805E-04 ( -30.72%)
   displ. norm   :     0.2389187 α      lambda       -0.7199481E-04
   maximum displ.:     0.1194827 α      in ANC's #12, #18, #7, ...

........................................................................
.............................. CYCLE   40 ..............................
........................................................................
     iter. time                 ...        0 min,  0.022 sec
 * total energy  :   -31.1738258 Eh     change       -0.5393523E-04 Eh
   gradient norm :     0.0035330 Eh/α   predicted    -0.3805408E-04 ( -29.44%)
   displ. norm   :     0.2129163 α      lambda       -0.6328198E-04
   maximum displ.:     0.1160973 α      in ANC's #18, #12, #7, ...

........................................................................
.............................. CYCLE   41 ..............................
........................................................................
     iter. time                 ...        0 min,  0.023 sec
 * total energy  :   -31.1738717 Eh     change       -0.4589388E-04 Eh
   gradient norm :     0.0031173 Eh/α   predicted    -0.3308239E-04 ( -27.92%)
   displ. norm   :     0.1758032 α      lambda       -0.4590960E-04
   maximum displ.:     0.1009071 α      in ANC's #18, #12, #17, ...

........................................................................
.............................. CYCLE   42 ..............................
........................................................................
     iter. time                 ...        0 min,  0.019 sec
 * total energy  :   -31.1739053 Eh     change       -0.3360308E-04 Eh
   gradient norm :     0.0027224 Eh/α   predicted    -0.2366487E-04 ( -29.58%)
   displ. norm   :     0.1505080 α      lambda       -0.3750661E-04
   maximum displ.:     0.0894475 α      in ANC's #18, #10, #5, ...
 * RMSD in coord.:     0.6831789 α      energy gain  -0.1162293E-01 Eh

generating ANC from exact Hessian ...
Using GFN-FF Lindh-Hessian
 Shifting diagonal of input Hessian by    9.7126154520671346E-003
 Lowest  eigenvalues of input Hessian
    0.000000    0.000000    0.000000    0.000000    0.000000    0.000000
    0.010000    0.010006    0.010025    0.010126    0.010145    0.010198
    0.010203    0.010216    0.010651    0.010659    0.010673    0.011224
 Highest eigenvalues
    2.956894    2.957228    2.958228    2.961197    2.961368    2.962362


........................................................................
.............................. CYCLE   43 ..............................
........................................................................
     iter. time                 ...        0 min,  0.075 sec
 * total energy  :   -31.1739330 Eh     change       -0.2765743E-04 Eh
   gradient norm :     0.0024342 Eh/α   predicted     0.0000000E+00 (-100.00%)
   displ. norm   :     0.0214033 α      lambda       -0.1082545E-04
   maximum displ.:     0.0074434 α      in ANC's #18, #36, #5, ...

........................................................................
.............................. CYCLE   44 ..............................
........................................................................
     iter. time                 ...        0 min,  0.039 sec
 * total energy  :   -31.1739460 Eh     change       -0.1299097E-04 Eh
   gradient norm :     0.0016378 Eh/α   predicted    -0.7340989E-05 ( -43.49%)
   displ. norm   :     0.1419052 α      lambda       -0.4451713E-04
   maximum displ.:     0.0504909 α      in ANC's #5, #18, #36, ...

........................................................................
.............................. CYCLE   45 ..............................
........................................................................
     iter. time                 ...        0 min,  0.043 sec
 * total energy  :   -31.1739717 Eh     change       -0.2575124E-04 Eh
   gradient norm :     0.0029026 Eh/α   predicted    -0.2317028E-04 ( -10.02%)
   displ. norm   :     0.0101423 α      lambda       -0.9395056E-05
   maximum displ.:     0.0039206 α      in ANC's #5, #4, #1, ...

........................................................................
.............................. CYCLE   46 ..............................
........................................................................
     iter. time                 ...        0 min,  0.020 sec
 * total energy  :   -31.1739802 Eh     change       -0.8463010E-05 Eh
   gradient norm :     0.0020416 Eh/α   predicted    -0.4829592E-05 ( -42.93%)
   displ. norm   :     0.0756347 α      lambda       -0.3218716E-04
   maximum displ.:     0.0332400 α      in ANC's #5, #4, #18, ...

........................................................................
.............................. CYCLE   47 ..............................
........................................................................
     iter. time                 ...        0 min,  0.019 sec
 * total energy  :   -31.1740010 Eh     change       -0.2082774E-04 Eh
   gradient norm :     0.0011914 Eh/α   predicted    -0.1625355E-04 ( -21.96%)
   displ. norm   :     0.1251923 α      lambda       -0.1377664E-04
   maximum displ.:     0.0543400 α      in ANC's #5, #18, #4, ...

........................................................................
.............................. CYCLE   48 ..............................
........................................................................
     iter. time                 ...        0 min,  0.020 sec
 * total energy  :   -31.1740159 Eh     change       -0.1483512E-04 Eh
   gradient norm :     0.0021827 Eh/α   predicted    -0.6941845E-05 ( -53.21%)
   displ. norm   :     0.1153949 α      lambda       -0.1669758E-04
   maximum displ.:     0.0493665 α      in ANC's #5, #18, #4, ...

........................................................................
.............................. CYCLE   49 ..............................
........................................................................
     iter. time                 ...        0 min,  0.014 sec
 * total energy  :   -31.1740295 Eh     change       -0.1360665E-04 Eh
   gradient norm :     0.0017163 Eh/α   predicted    -0.8466729E-05 ( -37.78%)
   displ. norm   :     0.2718125 α      lambda       -0.2054564E-04
   maximum displ.:     0.1172449 α      in ANC's #5, #18, #4, ...

........................................................................
.............................. CYCLE   50 ..............................
........................................................................
     iter. time                 ...        0 min,  0.027 sec
 * total energy  :   -31.1740443 Eh     change       -0.1481178E-04 Eh
   gradient norm :     0.0010843 Eh/α   predicted    -0.1062465E-04 ( -28.27%)
   displ. norm   :     0.0259467 α      lambda       -0.4796585E-05
   maximum displ.:     0.0124036 α      in ANC's #18, #17, #5, ...

........................................................................
.............................. CYCLE   51 ..............................
........................................................................
     iter. time                 ...        0 min,  0.025 sec
 * total energy  :   -31.1740507 Eh     change       -0.6396179E-05 Eh
   gradient norm :     0.0007505 Eh/α   predicted    -0.2432861E-05 ( -61.96%)
   displ. norm   :     0.1132761 α      lambda       -0.1448809E-04
   maximum displ.:     0.0588039 α      in ANC's #18, #17, #5, ...

........................................................................
.............................. CYCLE   52 ..............................
........................................................................
     iter. time                 ...        0 min,  0.021 sec
 * total energy  :   -31.1740641 Eh     change       -0.1345537E-04 Eh
   gradient norm :     0.0008667 Eh/α   predicted    -0.7290204E-05 ( -45.82%)
   displ. norm   :     0.0795006 α      lambda       -0.3785101E-05
   maximum displ.:     0.0428289 α      in ANC's #18, #5, #4, ...

........................................................................
.............................. CYCLE   53 ..............................
........................................................................
     iter. time                 ...        0 min,  0.019 sec
 * total energy  :   -31.1740690 Eh     change       -0.4872369E-05 Eh
   gradient norm :     0.0008982 Eh/α   predicted    -0.1937043E-05 ( -60.24%)
   displ. norm   :     0.1358803 α      lambda       -0.7115899E-05
   maximum displ.:     0.0709355 α      in ANC's #18, #5, #4, ...

   *** GEOMETRY OPTIMIZATION CONVERGED AFTER 53 ITERATIONS ***

------------------------------------------------------------------------
 total energy gain   :        -0.7627476 Eh     -478.6314 kcal/mol
 total RMSD          :         1.4414923 a0        0.7628 Å
 total power (kW/mol):       -37.7847853 (step) -631.0709 (real)
------------------------------------------------------------------------

 ANCopt (total)                0 d,  0 h,  0 min,  3.174 sec
 optimizer setup                ...        0 min,  0.002 sec (  0.060%)
 model hessian                  ...        0 min,  0.040 sec (  1.266%)
 ANC generation                 ...        0 min,  1.676 sec ( 52.808%)
 coordinate transformation      ...        0 min,  0.017 sec (  0.530%)
 single point calculation       ...        0 min,  1.312 sec ( 41.338%)
 optimization log               ...        0 min,  0.042 sec (  1.319%)
 hessian update                 ...        0 min,  0.029 sec (  0.928%)
 rational function              ...        0 min,  0.042 sec (  1.321%)

================
 final structure:
================
168
 xtb: 6.7.1 (edcfbbe)
C            0.52124424421428       -1.07276945370093        4.16601250118264
C           -0.81856589660781       -0.69864447714605        4.13450319261885
C           -1.13628452987818        0.65335226739201        4.10355460746949
C           -0.14225570140755        1.62725060375477        4.11109949170706
C            1.18774335137671        1.22674653544553        4.14307469439224
C            1.53316613150991       -0.12106140176578        4.17316416367294
H            0.78430801967183       -2.11347599448031        4.21690731148051
H           -2.17051142505437        0.94530619317561        4.10605521132778
H            1.95678076553634        1.97662546816273        4.17653356726231
C           -3.77179204441329       -0.33197311804451       -0.70130556200486
C           -3.57609814374941       -1.33974476936309        0.23806054950085
C           -2.79736223718100       -2.43625712735054       -0.10942918018669
C           -2.22337014182245       -2.54245799411575       -1.37258842963664
C           -2.43386280378624       -1.52184120680988       -2.29156997585253
C           -3.20931411177112       -0.41173797474964       -1.96926001799598
H           -4.39321438340224        0.51073295660126       -0.45936760222074
H           -2.66727905017245       -3.22879074634429        0.60464668398237
H           -2.01504852497026       -1.61350467699012       -3.27699622866967
C            2.66642316781745       -2.83903679637522       -0.50663269167835
C            3.46868143740707       -2.16753470617083        0.41157438670122
C            4.04699685280337       -0.96031247642752        0.03969360756576
C            3.84137452892659       -0.42294015420413       -1.22712726486539
C            3.03542962758191       -1.11262132948534       -2.12387009545142
C            2.44457430368579       -2.32424471245420       -1.77811040412922
H            2.23600796470619       -3.78870687547408       -0.24636785959742
H            4.68865808891834       -0.45372109788506        0.73720272996285
H            2.89768074804947       -0.71431512432066       -3.11246220476345
C            1.50477673849706        3.93415911185649       -0.64785207303994
C            0.52262277260703        4.29637482143632        0.26927544344153
C           -0.81156746463007        4.20527791753805       -0.10737683701555
C           -1.17292882246871        3.76744110194730       -1.37801922459372
C           -0.17258172423355        3.41175830297471       -2.27391870491784
C            1.17133628392663        3.49370712706912       -1.92261216645387
H            2.54240318094951        4.02588707105945       -0.38366851524583
H           -1.57118063167163        4.51105866272088        0.58858936686734
H           -0.44793555786408        3.09913493636029       -3.26455344752903
C           -1.87133208895269       -1.69236081030009        4.20184176181914
N           -3.05782276188591       -1.41379908386499        4.56096479370722
C           -4.05819889891295       -2.39185084798452        4.66090763118201
C           -4.79477312668078       -2.32463224892992        6.01679424911971
C           -5.88035485060638       -3.41026041704870        6.12126946243541
C           -6.88034515078045       -3.30689073481772        4.95396103032924
C           -6.15611854933698       -3.37236768728795        3.59765535697536
C           -5.07089783282081       -2.27908360389317        3.48308169394953
N           -4.41094028344123       -2.32636854760908        2.24655164405830
C           -4.22394018882627       -1.29119679960214        1.53391577771545
H           -1.62133906803154       -2.71592610056637        3.98468041691609
H           -3.57826666201559       -3.37863528829188        4.57650933655935
H           -4.06975126613250       -2.39919984874300        6.83673195421548
H           -5.24625777836596       -1.33178752743531        6.11496077527622
H           -6.40020749585037       -3.34848428753070        7.08729296564471
H           -5.40635389702193       -4.39932205703294        6.10684481769038
H           -7.64534094529063       -4.09240750078895        5.02468624750394
H           -7.42676219416802       -2.35865215385587        5.02729552496013
H           -5.67533098919457       -4.34877325526876        3.47602157070157
H           -6.85989334521933       -3.28606801969619        2.76052074979125
H           -5.55819744525261       -1.29628218730990        3.57104502760326
H           -4.60234337618628       -0.34553632896637        1.88032224799979
C            2.91841453799970       -0.53430627218945        4.27734428189015
N            3.26485262674001       -1.68385178563809        4.69290605777220
C            4.61076606309933       -2.05603529522568        4.81958625186419
C            4.89963427059798       -2.73402384391480        6.17671966228826
C            6.38631600699398       -3.10942708541134        6.31022374440833
C            6.83922724466395       -4.00836391987957        5.14341080471724
C            6.54663553243058       -3.34523865045025        3.78548905602187
C            5.05207188931601       -2.98104702891331        3.64720548636714
N            4.76579506535976       -2.39642660403394        2.40526980591409
C            3.75865299395181       -2.74047911022128        1.71134570010031
H            3.68320411093885        0.18146002855749        4.03181459316801
H            5.22166296812280       -1.14281873959381        4.75427911216080
H            4.57321558272673       -2.08032876875796        6.99497841742605
H            4.27753616803496       -3.63196577161783        6.25339452460269
H            6.57790938154837       -3.59792597161404        7.27556142079285
H            6.99162334477720       -2.19481297234746        6.32013283315655
H            7.90627676408641       -4.25462430618136        5.23287696941862
H            6.31192748831029       -4.96849404753539        5.19908613684329
H            7.13618759442255       -2.42833576705837        3.68084803243601
H            6.85125747699261       -3.98665378387702        2.94930894668071
H            4.46294598726859       -3.90710325632736        3.72878463976806
H            3.11481277265353       -3.51948782528168        2.08026765011608
C           -0.48214628434330        3.03556939045308        4.16200475101360
N            0.32371856222213        3.92485409230783        4.57916177613083
C           -0.04921853458016        5.27197389720154        4.68977577798682
C            0.42659192186916        5.89429464756211        6.02088681441310
C           -0.02051642557046        7.36168596832749        6.14566265732359
C            0.47122564254165        8.19592239508607        4.94709063903818
C            0.01191932892098        7.57769141169456        3.61441357176014
C            0.47333482101836        6.10914321556592        3.48542226011230
N            0.08704762173578        5.54430964715830        2.26158831634423
C            0.87859027187808        4.83170796293321        1.56878049059235
H           -1.48152813050256        3.32778548609905        3.89068223840278
H           -1.14846156624942        5.32091695824520        4.66147480665427
H            0.06683888529335        5.28964777238964        6.86255986135033
H            1.51910645639667        5.83031980511966        6.06057032457434
H            0.33093297629750        7.79485301752954        7.09228907561047
H           -1.11546709960751        7.40430143453909        6.19327224463177
H            0.12824949590031        9.23643759223661        5.03033174695299
H            1.56669563321957        8.24683815652897        4.96481402800158
H           -1.08068538210469        7.60353940286116        3.54549249418007
H            0.37346260195150        8.15664356009505        2.75564620048473
H            1.57277171601124        6.08922999520875        3.53348788818602
H            1.87725824947132        4.66276052640289        1.93196725879928
C           -1.48583289439692       -3.73135083965538       -1.75348013055035
N           -1.31735481904557       -4.08400033667396       -2.96236811907236
C           -0.67312286015602       -5.28287817000969       -3.29940014394300
C           -1.39352170794990       -6.02391428892665       -4.44734779834204
C           -0.70132387497519       -7.35962861039604       -4.77329824994205
C            0.78774128576848       -7.14736565528395       -5.10895427858789
C            1.51104737609164       -6.39569868000688       -3.97694287938162
C            0.82153370415594       -5.04882403012908       -3.66634732570362
N            1.49424559626978       -4.33254760362759       -2.66622874346760
C            1.67860905130799       -3.07836655701007       -2.75146056520883
H           -1.12269905417914       -4.37501086124250       -0.97139188557261
H           -0.68741316915625       -5.93286557901945       -2.41114864934896
H           -2.45004734497977       -6.16872262302324       -4.19008938398027
H           -1.39341767116872       -5.37614486186063       -5.33033750141987
H           -1.21684461103358       -7.87217608669454       -5.59719795498826
H           -0.78713859838073       -8.03236543141042       -3.91125937951222
H            1.28124761351667       -8.10750852079044       -5.31349054426928
H            0.87222661752064       -6.57146885655157       -6.03860391461286
H            1.51196513986958       -7.00181375755991       -3.06485400994833
H            2.56786269167708       -6.22486901143304       -4.21651195882034
H            0.83530561115263       -4.43903369113609       -4.58269903479249
H            1.30773035259948       -2.55866204181342       -3.61764765463706
C           -3.48711785477211        0.61530234845612       -2.95397633055730
N           -4.47514772170729        1.40889496162372       -2.86270352872362
C           -4.74817812036991        2.37406365981342       -3.84258374058450
C           -6.24623811389754        2.41519910293354       -4.21559156770353
C           -6.52123715532389        3.45755736626344       -5.31430699686568
C           -6.02621743714112        4.85446497995207       -4.89192331076897
C           -4.53638691057662        4.82271520946464       -4.50605043057096
C           -4.26507665767046        3.78499723230556       -3.39482311249769
N           -2.91623620873580        3.76286935932525       -3.01283195531624
C           -2.56178946612635        3.74758562747127       -1.79285447349600
H           -2.85177664111135        0.67542797683552       -3.82025032247953
H           -4.17627547421795        2.11040488720600       -4.74525846613637
H           -6.58226030996036        1.41469771644372       -4.51473843048015
H           -6.81940244975929        2.65950693336934       -3.31499787700236
H           -7.59039425376855        3.48272113264625       -5.56629841641443
H           -6.01051858515749        3.15520113407081       -6.23668900920148
H           -6.20437506193594        5.58830894253077       -5.69003561886393
H           -6.61513635743429        5.20513146454827       -4.03565558909067
H           -3.92797108350705        4.56198909847431       -5.37840316187212
H           -4.18172915249080        5.81016780821904       -4.18576412863516
H           -4.86132984762751        4.06288737738719       -2.51238205603727
H           -3.32115331255111        3.76902983212945       -1.03090816447689
C            4.50911009867394        0.79631861671297       -1.63786087367847
N            4.68650649511865        1.10575548849343       -2.85726842737420
C            5.37367681375484        2.26596250337314       -3.24222212398834
C            6.43819037109226        1.97288867082195       -4.32241112408965
C            7.19673465708196        3.24984290596188       -4.72534530914242
C            6.22391093993228        4.34485194470280       -5.20294665119007
C            5.15765232170887        4.64271346929518       -4.13393083687133
C            4.38669529110799        3.36515762508751       -3.73494479464513
N            3.40151580114751        3.62766147128854       -2.77187991406041
C            2.21236034770587        3.19529388218900       -2.88627363950636
H            4.91460552228305        1.43677893240809       -0.87441992239012
H            5.88421387928696        2.66831440788666       -2.35413982748260
H            7.12259857510710        1.19283114274350       -3.96666358223829
H            5.93463021778166        1.54428147534297       -5.19528928060724
H            7.94569002226397        3.02935009690355       -5.49844131849247
H            7.76573834373937        3.62027606191823       -3.86391467096918
H            6.76870454621577        5.25977524337578       -5.47379856509204
H            5.73021355272574        4.01456702970685       -6.12503746156743
H            5.63095956761749        5.05413706775660       -3.23619911518292
H            4.45188835306868        5.41164948270962       -4.47175056634012
H            3.88733637257074        2.96893629269516       -4.63211607449281
H            1.94875220041394        2.62468404636969       -3.75945953661831

 Bond Distances (Angstroems)
 ---------------------------
C1-C2=1.3914         C1-C6=1.3892         C1-H7=1.0746         C2-C1=1.3914         C2-C3=1.3892         C2-C37=1.4492        
C3-C2=1.3892         C3-C4=1.3916         C3-H8=1.0746         C4-C3=1.3916         C4-C5=1.3894         C4-C81=1.4496        
C5-C4=1.3894         C5-C6=1.3917         C5-H9=1.0746         C6-C1=1.3892         C6-C5=1.3917         C6-C59=1.4493        
H7-C1=1.0746         H8-C3=1.0746         H9-C5=1.0746         C10-C11=1.3915       C10-C15=1.3894       C10-H16=1.0746       
C11-C10=1.3915       C11-C12=1.3891       C11-C46=1.4496       C12-C11=1.3891       C12-C13=1.3915       C12-H17=1.0747       
C13-C12=1.3915       C13-C14=1.3894       C13-C103=1.4500      C14-C13=1.3894       C14-C15=1.3920       C14-H18=1.0747       
C15-C10=1.3894       C15-C14=1.3920       C15-C125=1.4497      H16-C10=1.0746       H17-C12=1.0747       H18-C14=1.0747       
C19-C20=1.3920       C19-C24=1.3896       C19-H25=1.0746       C20-C19=1.3920       C20-C21=1.3893       C20-C68=1.4497       
C21-C20=1.3893       C21-C22=1.3914       C21-H26=1.0747       C22-C21=1.3914       C22-C23=1.3890       C22-C147=1.4495      
C23-C22=1.3890       C23-C24=1.3917       C23-H27=1.0747       C24-C19=1.3896       C24-C23=1.3917       C24-C112=1.4501      
H25-C19=1.0746       H26-C21=1.0747       H27-C23=1.0747       C28-C29=1.3917       C28-C33=1.3893       C28-H34=1.0747       
C29-C28=1.3917       C29-C30=1.3893       C29-C90=1.4498       C30-C29=1.3893       C30-C31=1.3917       C30-H35=1.0747       
C31-C30=1.3917       C31-C32=1.3892       C31-C134=1.4496      C32-C31=1.3892       C32-C33=1.3915       C32-H36=1.0747       
C33-C28=1.3893       C33-C32=1.3915       C33-C156=1.4496      H34-C28=1.0747       H35-C30=1.0747       H36-C32=1.0747       
C37-C2=1.4492        C37-N38=1.2706       C37-H47=1.0758       N38-C37=1.2706       N38-C39=1.4026       C39-N38=1.4026       
C39-C40=1.5445       C39-C44=1.5574       C39-H48=1.1005       C40-C39=1.5445       C40-C41=1.5388       C40-H49=1.0970       
C40-H50=1.0951       C41-C40=1.5388       C41-C42=1.5405       C41-H51=1.0988       C41-H52=1.0969       C42-C41=1.5405       
C42-C43=1.5389       C42-H53=1.0988       C42-H54=1.0969       C43-C42=1.5389       C43-C44=1.5447       C43-H55=1.0951       
C43-H56=1.0971       C44-C39=1.5574       C44-C43=1.5447       C44-N45=1.4024       C44-H57=1.1005       N45-C44=1.4024       
N45-C46=1.2706       C46-C11=1.4496       C46-N45=1.2706       C46-H58=1.0759       H47-C37=1.0758       H48-C39=1.1005       
H49-C40=1.0970       H50-C40=1.0951       H51-C41=1.0988       H52-C41=1.0969       H53-C42=1.0988       H54-C42=1.0969       
H55-C43=1.0951       H56-C43=1.0971       H57-C44=1.1005       H58-C46=1.0759       C59-C6=1.4493        C59-N60=1.2705       
C59-H69=1.0759       N60-C59=1.2705       N60-C61=1.4022       C61-N60=1.4022       C61-C62=1.5443       C61-C66=1.5572       
C61-H70=1.1006       C62-C61=1.5443       C62-C63=1.5391       C62-H71=1.0970       C62-H72=1.0951       C63-C62=1.5391       
C63-C64=1.5410       C63-H73=1.0987       C63-H74=1.0968       C64-C63=1.5410       C64-C65=1.5393       C64-H75=1.0987       
C64-H76=1.0968       C65-C64=1.5393       C65-C66=1.5445       C65-H77=1.0951       C65-H78=1.0970       C66-C61=1.5572       
C66-C65=1.5445       C66-N67=1.4022       C66-H79=1.1006       N67-C66=1.4022       N67-C68=1.2705       C68-C20=1.4497       
C68-N67=1.2705       C68-H80=1.0759       H69-C59=1.0759       H70-C61=1.1006       H71-C62=1.0970       H72-C62=1.0951       
H73-C63=1.0987       H74-C63=1.0968       H75-C64=1.0987       H76-C64=1.0968       H77-C65=1.0951       H78-C65=1.0970       
H79-C66=1.1006       H80-C68=1.0759       C81-C4=1.4496        C81-N82=1.2705       C81-H91=1.0760       N82-C81=1.2705       
N82-C83=1.4022       C83-N82=1.4022       C83-C84=1.5445       C83-C88=1.5570       C83-H92=1.1007       C84-C83=1.5445       
C84-C85=1.5391       C84-H93=1.0970       C84-H94=1.0951       C85-C84=1.5391       C85-C86=1.5409       C85-H95=1.0988       
C85-H96=1.0968       C86-C85=1.5409       C86-C87=1.5392       C86-H97=1.0987       C86-H98=1.0968       C87-C86=1.5392       
C87-C88=1.5447       C87-H99=1.0951       C87-H100=1.0970      C88-C83=1.5570       C88-C87=1.5447       C88-N89=1.4022       
C88-H101=1.1007      N89-C88=1.4022       N89-C90=1.2706       C90-C29=1.4498       C90-N89=1.2706       C90-H102=1.0760      
H91-C81=1.0760       H92-C83=1.1007       H93-C84=1.0970       H94-C84=1.0951       H95-C85=1.0988       H96-C85=1.0968       
H97-C86=1.0987       H98-C86=1.0968       H99-C87=1.0951       H100-C87=1.0970      H101-C88=1.1007      H102-C90=1.0760      
C103-C13=1.4500      C103-N104=1.2705     C103-H113=1.0760     N104-C103=1.2705     N104-C105=1.4021     C105-N104=1.4021     
C105-C106=1.5446     C105-C110=1.5567     C105-H114=1.1008     C106-C105=1.5446     C106-C107=1.5393     C106-H115=1.0970     
C106-H116=1.0951     C107-C106=1.5393     C107-C108=1.5411     C107-H117=1.0988     C107-H118=1.0968     C108-C107=1.5411     
C108-C109=1.5394     C108-H119=1.0988     C108-H120=1.0968     C109-C108=1.5394     C109-C110=1.5447     C109-H121=1.0951     
C109-H122=1.0970     C110-C105=1.5567     C110-C109=1.5447     C110-N111=1.4021     C110-H123=1.1008     N111-C110=1.4021     
N111-C112=1.2705     C112-C24=1.4501      C112-N111=1.2705     C112-H124=1.0761     H113-C103=1.0760     H114-C105=1.1008     
H115-C106=1.0970     H116-C106=1.0951     H117-C107=1.0988     H118-C107=1.0968     H119-C108=1.0988     H120-C108=1.0968     
H121-C109=1.0951     H122-C109=1.0970     H123-C110=1.1008     H124-C112=1.0761     C125-C15=1.4497      C125-N126=1.2706     
C125-H135=1.0760     N126-C125=1.2706     N126-C127=1.4022     C127-N126=1.4022     C127-C128=1.5443     C127-C132=1.5571     
C127-H136=1.1006     C128-C127=1.5443     C128-C129=1.5393     C128-H137=1.0970     C128-H138=1.0951     C129-C128=1.5393     
C129-C130=1.5410     C129-H139=1.0987     C129-H140=1.0968     C130-C129=1.5410     C130-C131=1.5393     C130-H141=1.0987     
C130-H142=1.0968     C131-C130=1.5393     C131-C132=1.5444     C131-H143=1.0951     C131-H144=1.0970     C132-C127=1.5571     
C132-C131=1.5444     C132-N133=1.4021     C132-H145=1.1007     N133-C132=1.4021     N133-C134=1.2705     C134-C31=1.4496      
C134-N133=1.2705     C134-H146=1.0759     H135-C125=1.0760     H136-C127=1.1006     H137-C128=1.0970     H138-C128=1.0951     
H139-C129=1.0987     H140-C129=1.0968     H141-C130=1.0987     H142-C130=1.0968     H143-C131=1.0951     H144-C131=1.0970     
H145-C132=1.1007     H146-C134=1.0759     C147-C22=1.4495      C147-N148=1.2705     C147-H157=1.0759     N148-C147=1.2705     
N148-C149=1.4023     C149-N148=1.4023     C149-C150=1.5446     C149-C154=1.5573     C149-H158=1.1006     C150-C149=1.5446     
C150-C151=1.5389     C150-H159=1.0970     C150-H160=1.0951     C151-C150=1.5389     C151-C152=1.5406     C151-H161=1.0987     
C151-H162=1.0968     C152-C151=1.5406     C152-C153=1.5390     C152-H163=1.0987     C152-H164=1.0968     C153-C152=1.5390     
C153-C154=1.5446     C153-H165=1.0951     C153-H166=1.0970     C154-C149=1.5573     C154-C153=1.5446     C154-N155=1.4025     
C154-H167=1.1006     N155-C154=1.4025     N155-C156=1.2705     C156-C33=1.4496      C156-N155=1.2705     C156-H168=1.0759     
H157-C147=1.0759     H158-C149=1.1006     H159-C150=1.0970     H160-C150=1.0951     H161-C151=1.0987     H162-C151=1.0968     
H163-C152=1.0987     H164-C152=1.0968     H165-C153=1.0951     H166-C153=1.0970     H167-C154=1.1006     H168-C156=1.0759     
 C  H  Rav=1.0913 sigma=0.0102  Rmin=1.0746  Rmax=1.1008    84
 C  C  Rav=1.4772 sigma=0.0700  Rmin=1.3890  Rmax=1.5574    72
 N  C  Rav=1.3364 sigma=0.0659  Rmin=1.2705  Rmax=1.4026    24

 selected bond angles (degree)
 --------------------
C6-C1-C2=121.15                H7-C1-C2=119.81                H7-C1-C6=119.01                C3-C2-C1=118.84                
C37-C2-C1=120.93               C37-C2-C3=120.15               C4-C3-C2=121.17                H8-C3-C2=118.98                
H8-C3-C4=119.82                C5-C4-C3=118.83                C81-C4-C3=120.84               C81-C4-C5=120.24               
C6-C5-C4=121.15                H9-C5-C4=118.99                H9-C5-C6=119.83                C5-C6-C1=118.85                
C59-C6-C1=120.08               C59-C6-C5=120.99               C15-C10-C11=121.17             H16-C10-C11=119.82             
H16-C10-C15=118.98             

 selected dihedral angles (degree)
 ---------------------------------
C3-C2-C1-C6=  0.30            C3-C2-C1-H7=178.36            C37-C2-C1-C6=183.45           C37-C2-C1-H7=  1.50           
C4-C3-C2-C1=359.64            C4-C3-C2-C37=176.53           H8-C3-C2-C1=181.64            H8-C3-C2-C37=358.52           
C5-C4-C3-C2=  0.35            C5-C4-C3-H8=178.33            C81-C4-C3-C2=183.84           C81-C4-C3-H8=  1.83           
C6-C5-C4-C3=359.72            C6-C5-C4-C81=176.25           H9-C5-C4-C3=181.68            H9-C5-C4-C81=358.21           
C5-C6-C1-C2=359.76            C5-C6-C1-H7=181.69            C59-C6-C1-C2=176.74           C59-C6-C1-H7=358.67           
C1-C6-C5-C4=  0.23            C1-C6-C5-H9=178.25            C59-C6-C5-C4=183.27           C59-C6-C5-H9=  1.30           
           -------------------------------------------------
          |                Final Singlepoint                |
           -------------------------------------------------
         :::::::::::::::::::::::::::::::::::::::::::::::::::::
         ::                     SUMMARY                     ::
         :::::::::::::::::::::::::::::::::::::::::::::::::::::
         :: total energy             -31.174068993736 Eh    ::
         :: gradient norm              0.000898159986 Eh/a0 ::
         ::.................................................::
         :: bond energy              -32.894547760850 Eh    ::
         :: angle energy               0.029797821554 Eh    ::
         :: torsion energy             0.077499065293 Eh    ::
         :: repulsion energy           2.047636316828 Eh    ::
         :: electrostat energy        -0.237374020922 Eh    ::
         :: dispersion energy         -0.176719364823 Eh    ::
         :: HB energy                 -0.003927563958 Eh    ::
         :: XB energy                  0.000000000000 Eh    ::
         :: bonded atm energy         -0.016433486857 Eh    ::
         :: external energy            0.000000000000 Eh    ::
         :: add. restraining           0.000000000000 Eh    ::
         :: total charge               0.000000000000 e     ::
         :::::::::::::::::::::::::::::::::::::::::::::::::::::

           -------------------------------------------------
          |                Property Printout                |
           -------------------------------------------------

molecular dipole:
                 x           y           z       tot (Debye)
 q only:       -0.001       0.001       0.013       0.032
           -------------------------------------------------
          |                Geometry Summary                 |
           -------------------------------------------------

      molecular mass/u    :     1117.5204463
   center of mass at/Å    :        0.1543538       0.2617141       0.3033798
  moments of inertia/u·Å² :        0.3065243E+05   0.3114686E+05   0.3134030E+05
rotational constants/cm⁻¹ :        0.5499607E-03   0.5412305E-03   0.5378899E-03

 * 144 selected distances

     #   Z          #   Z                                           value/Å
     1   6 C        2   6 C                                       1.3914215
     2   6 C        3   6 C                                       1.3891719
     3   6 C        4   6 C                                       1.3916280
     4   6 C        5   6 C                                       1.3893609
     1   6 C        6   6 C                                       1.3891672
     5   6 C        6   6 C                                       1.3916928
     1   6 C        7   1 H                                       1.0746456
     3   6 C        8   1 H                                       1.0746482
     5   6 C        9   1 H                                       1.0746426
    10   6 C       11   6 C                                       1.3915132
    11   6 C       12   6 C                                       1.3890711
    12   6 C       13   6 C                                       1.3915162
    13   6 C       14   6 C                                       1.3894219
    10   6 C       15   6 C                                       1.3894073
    14   6 C       15   6 C                                       1.3919547
    10   6 C       16   1 H                                       1.0746411 (min)
    12   6 C       17   1 H                                       1.0746794
    14   6 C       18   1 H                                       1.0746500
    19   6 C       20   6 C                                       1.3919907
    20   6 C       21   6 C                                       1.3892912
    21   6 C       22   6 C                                       1.3913609
    22   6 C       23   6 C                                       1.3890124
    19   6 C       24   6 C                                       1.3895624
    23   6 C       24   6 C                                       1.3916506
    19   6 C       25   1 H                                       1.0746481
    21   6 C       26   1 H                                       1.0746549
    23   6 C       27   1 H                                       1.0746800
    28   6 C       29   6 C                                       1.3917435
    29   6 C       30   6 C                                       1.3893270
    30   6 C       31   6 C                                       1.3916952
    31   6 C       32   6 C                                       1.3891871
    28   6 C       33   6 C                                       1.3893143
    32   6 C       33   6 C                                       1.3914912
    28   6 C       34   1 H                                       1.0746515
    30   6 C       35   1 H                                       1.0746549
    32   6 C       36   1 H                                       1.0746676
    37   6 C       38   7 N                                       1.2705615
    38   7 N       39   6 C                                       1.4026142
    40   6 C       41   6 C                                       1.5388280
    42   6 C       43   6 C                                       1.5389467
    44   6 C       45   7 N                                       1.4024217
    45   7 N       46   6 C                                       1.2705903
    37   6 C       47   1 H                                       1.0757982
    39   6 C       48   1 H                                       1.1005461
    40   6 C       49   1 H                                       1.0970484
    40   6 C       50   1 H                                       1.0950872
    41   6 C       51   1 H                                       1.0987560
    41   6 C       52   1 H                                       1.0968720
    42   6 C       53   1 H                                       1.0987527
    42   6 C       54   1 H                                       1.0968620
    43   6 C       55   1 H                                       1.0951345
    43   6 C       56   1 H                                       1.0970602
    44   6 C       57   1 H                                       1.1004987
    46   6 C       58   1 H                                       1.0758533
    59   6 C       60   7 N                                       1.2704984
    60   7 N       61   6 C                                       1.4021597
    62   6 C       63   6 C                                       1.5391472
    64   6 C       65   6 C                                       1.5392521
    66   6 C       67   7 N                                       1.4021912
    67   7 N       68   6 C                                       1.2705268
    59   6 C       69   1 H                                       1.0758762
    61   6 C       70   1 H                                       1.1006474
    62   6 C       71   1 H                                       1.0970023
    62   6 C       72   1 H                                       1.0950731
    63   6 C       73   1 H                                       1.0987339
    63   6 C       74   1 H                                       1.0968201
    64   6 C       75   1 H                                       1.0987462
    64   6 C       76   1 H                                       1.0968112
    65   6 C       77   1 H                                       1.0950947
    65   6 C       78   1 H                                       1.0969983
    66   6 C       79   1 H                                       1.1005930
    68   6 C       80   1 H                                       1.0758664
    81   6 C       82   7 N                                       1.2705376
    82   7 N       83   6 C                                       1.4021589
    84   6 C       85   6 C                                       1.5390623
    86   6 C       87   6 C                                       1.5392207
    88   6 C       89   7 N                                       1.4021500
    89   7 N       90   6 C                                       1.2705605
    81   6 C       91   1 H                                       1.0759974
    83   6 C       92   1 H                                       1.1006961
    84   6 C       93   1 H                                       1.0970113
    84   6 C       94   1 H                                       1.0951054
    85   6 C       95   1 H                                       1.0987503
    85   6 C       96   1 H                                       1.0968135
    86   6 C       97   1 H                                       1.0987419
    86   6 C       98   1 H                                       1.0967959
    87   6 C       99   1 H                                       1.0950815
    87   6 C      100   1 H                                       1.0969871
    88   6 C      101   1 H                                       1.1006673
    90   6 C      102   1 H                                       1.0760046
   103   6 C      104   7 N                                       1.2704948
   104   7 N      105   6 C                                       1.4021176
   106   6 C      107   6 C                                       1.5393228
   108   6 C      109   6 C                                       1.5393587 (max)
   110   6 C      111   7 N                                       1.4020809
   111   7 N      112   6 C                                       1.2705214
   103   6 C      113   1 H                                       1.0760235
   105   6 C      114   1 H                                       1.1007628
   106   6 C      115   1 H                                       1.0969950
   106   6 C      116   1 H                                       1.0951147
   107   6 C      117   1 H                                       1.0987618
   107   6 C      118   1 H                                       1.0968365
   108   6 C      119   1 H                                       1.0987530
   108   6 C      120   1 H                                       1.0968334
   109   6 C      121   1 H                                       1.0951176
   109   6 C      122   1 H                                       1.0970118
   110   6 C      123   1 H                                       1.1007882
   112   6 C      124   1 H                                       1.0760688
   125   6 C      126   7 N                                       1.2705602
   126   7 N      127   6 C                                       1.4022346
   128   6 C      129   6 C                                       1.5392567
   130   6 C      131   6 C                                       1.5393185
   132   6 C      133   7 N                                       1.4020620
   133   7 N      134   6 C                                       1.2705162
   125   6 C      135   1 H                                       1.0759667
   127   6 C      136   1 H                                       1.1006409
   128   6 C      137   1 H                                       1.0969973
   128   6 C      138   1 H                                       1.0951132
   129   6 C      139   1 H                                       1.0987402
   129   6 C      140   1 H                                       1.0968325
   130   6 C      141   1 H                                       1.0987496
   130   6 C      142   1 H                                       1.0968077
   131   6 C      143   1 H                                       1.0950559
   131   6 C      144   1 H                                       1.0970088
   132   6 C      145   1 H                                       1.1006558
   134   6 C      146   1 H                                       1.0759441
   147   6 C      148   7 N                                       1.2705022
   148   7 N      149   6 C                                       1.4023099
   150   6 C      151   6 C                                       1.5389470
   152   6 C      153   6 C                                       1.5389685
   154   6 C      155   7 N                                       1.4024911
   155   7 N      156   6 C                                       1.2704797
   147   6 C      157   1 H                                       1.0758523
   149   6 C      158   1 H                                       1.1005569
   150   6 C      159   1 H                                       1.0970236
   150   6 C      160   1 H                                       1.0950769
   151   6 C      161   1 H                                       1.0987397
   151   6 C      162   1 H                                       1.0968359
   152   6 C      163   1 H                                       1.0987473
   152   6 C      164   1 H                                       1.0968486
   153   6 C      165   1 H                                       1.0950852
   153   6 C      166   1 H                                       1.0970359
   154   6 C      167   1 H                                       1.1005759
   156   6 C      168   1 H                                       1.0758897

 * 3 distinct bonds (by element types)

   Z      Z             #   av. dist./Å        max./Å        min./Å
   1 H    6 C          84     1.0912726     1.1007882     1.0746411
   6 C    6 C          36     1.4400162     1.5393587     1.3890124
   6 C    7 N          24     1.3363892     1.4026142     1.2704797


optimized geometry written to: xtbopt.xyz


           -------------------------------------------------
          | TOTAL ENERGY              -31.174068993736 Eh   |
          | GRADIENT NORM               0.000898159986 Eh/α |
           -------------------------------------------------
########################################################################
[WARNING] Runtime exception occurred
-1- gfnff_setup: Could not read topology file.
########################################################################

------------------------------------------------------------------------
 * finished run on 2024/12/18 at 20:42:56.889     
------------------------------------------------------------------------
 total:
 * wall-time:     0 d,  0 h,  0 min,  3.346 sec
 *  cpu-time:     0 d,  0 h,  0 min, 32.439 sec
 * ratio c/w:     9.694 speedup
 SCF:
 * wall-time:     0 d,  0 h,  0 min,  0.030 sec
 *  cpu-time:     0 d,  0 h,  0 min,  0.059 sec
 * ratio c/w:     1.977 speedup
 ANC optimizer:
 * wall-time:     0 d,  0 h,  0 min,  3.199 sec
 *  cpu-time:     0 d,  0 h,  0 min, 30.938 sec
 * ratio c/w:     9.672 speedup

