168
 energy: -30.411321366442 gnorm: 0.537600137502 xtb: 6.7.1 (edcfbbe)
C            0.27396800000000       -1.12867700000000        5.17040000000000
C           -0.92883200000000       -0.42354900000000        5.17040500000000
C           -0.93811700000000        0.97064900000000        5.17047100000000
C            0.27387700000000        1.65963800000000        5.17040500000000
C            1.48599200000000        0.97061500000000        5.17044400000000
C            1.47669900000000       -0.42351700000000        5.17040500000000
H            0.27392900000000       -2.21548000000000        5.17036300000000
H           -1.87936100000000        1.51405200000000        5.17051800000000
H            2.42716000000000        1.51409700000000        5.17043700000000
C           -4.06763400000000       -0.33367100000000       -0.63870400000000
C           -3.66053200000000       -1.49819600000000        0.01097600000000
C           -2.85564500000000       -2.43305300000000       -0.63869600000000
C           -2.45780400000000       -2.19260300000000       -1.95305500000000
C           -2.85564300000000       -1.03345700000000       -2.61794800000000
C           -3.66051400000000       -0.10938300000000       -1.95314700000000
H           -4.69506900000000        0.39085900000000       -0.12633500000000
H           -2.54195000000000       -3.33877100000000       -0.12635200000000
H           -2.54185800000000       -0.85239100000000       -3.64260600000000
C            2.88294400000000       -3.04856500000000       -0.05643600000000
C            3.68790100000000       -2.11374200000000        0.59324400000000
C            4.09506800000000       -0.94926100000000       -0.05642800000000
C            3.68791100000000       -0.72494500000000       -1.37078700000000
C            2.88298100000000       -1.64905700000000       -2.03567900000000
C            2.48514500000000       -2.80813300000000       -1.37087900000000
H            2.56920000000000       -3.95420500000000        0.45593300000000
H            4.72259500000000       -0.22473400000000        0.45591600000000
H            2.56928100000000       -1.46784400000000       -3.06033800000000
C            1.48555700000000        4.53390700000000       -0.63754400000000
C            0.27349800000000        4.76360900000000        0.01213500000000
C           -0.93855500000000        4.53398600000000       -0.63753700000000
C           -0.92924000000000        4.06922000000000       -1.95189600000000
C            0.27353000000000        3.83418600000000       -2.61678800000000
C            1.47623700000000        4.06918700000000       -1.95198800000000
H            2.42673700000000        4.71501700000000       -0.12517600000000
H           -1.87977800000000        4.71517700000000       -0.12519200000000
H            0.27344400000000        3.47190700000000       -3.64144600000000
C           -2.12471100000000       -1.16206100000000        4.45208200000000
N           -3.38369800000000       -1.02711000000000        4.66977300000000
C           -4.07822600000000       -2.30367700000000        4.93048900000000
C           -5.03200100000000       -2.08613800000000        6.11100700000000
C           -5.88071700000000       -3.32528900000000        6.38285400000000
C           -6.63901900000000       -3.77380400000000        5.13693000000000
C           -5.70166900000000       -3.98167500000000        3.95040000000000
C           -4.86337700000000       -2.72947000000000        3.66785400000000
N           -3.91345600000000       -3.05661400000000        2.58579700000000
C           -3.81356200000000       -2.13711900000000        1.69420100000000
H           -1.58250700000000       -2.12296300000000        4.45411700000000
H           -3.37083900000000       -3.09958700000000        5.20515900000000
H           -4.45872100000000       -1.82915100000000        7.01009300000000
H           -5.69018200000000       -1.23095000000000        5.90848900000000
H           -6.59081200000000       -3.11572700000000        7.19067000000000
H           -5.23420300000000       -4.14081500000000        6.72944000000000
H           -7.17759700000000       -4.70421700000000        5.34865400000000
H           -7.39291500000000       -3.02020200000000        4.87800600000000
H           -5.04265100000000       -4.83630600000000        4.15223400000000
H           -6.28730100000000       -4.24575800000000        3.06157500000000
H           -5.54715900000000       -1.91996300000000        3.37378300000000
H           -4.37004800000000       -1.18436900000000        1.70364800000000
C            2.71986600000000       -1.52790300000000        4.84831500000000
N            3.23249100000000       -2.68569200000000        5.06600700000000
C            4.68529400000000       -2.64888400000000        5.32672200000000
C            4.97379000000000       -3.58364400000000        6.50724100000000
C            6.47128500000000       -3.69907500000000        6.77908700000000
C            7.23886200000000       -4.13152600000000        5.53316300000000
C            6.95020500000000       -3.21582400000000        4.34663200000000
C            5.44661700000000       -3.11594700000000        4.06408700000000
N            5.25496900000000       -2.12972200000000        2.98202900000000
C            4.40871600000000       -2.50296100000000        2.09043400000000
H            3.28092700000000       -0.57788800000000        4.85034800000000
H            5.02087800000000       -1.63831200000000        5.60139000000000
H            4.46459300000000       -3.21566200000000        7.40632700000000
H            4.56226900000000       -4.58124000000000        6.30472400000000
H            6.64484900000000       -4.41881400000000        7.58690400000000
H            6.85429200000000       -2.73141200000000        7.12567100000000
H            8.31391300000000       -4.13273900000000        5.74488600000000
H            6.96317300000000       -5.16122100000000        5.27424100000000
H            7.36082600000000       -2.21778100000000        4.54846400000000
H            7.47172400000000       -3.59095400000000        3.45780700000000
H            5.08745700000000       -4.11287500000000        3.77001800000000
H            3.86185600000000       -3.46126900000000        2.09988300000000
C            0.08566900000000        3.22164400000000        4.42305200000000
N            0.83203200000000        4.24448400000000        4.64074400000000
C            0.07375400000000        5.48424500000000        4.90145900000000
C            0.73903200000000        6.20147000000000        6.08197900000000
C            0.09025200000000        7.55605400000000        6.35382400000000
C            0.08097700000000        8.43702100000000        5.10790100000000
C           -0.56771600000000        7.72918600000000        3.92137000000000
C            0.09758100000000        6.37710200000000        3.63882400000000
N           -0.66069200000000        5.71801700000000        2.55676700000000
C            0.08566900000000        5.17176000000000        1.66517100000000
H           -1.01759800000000        3.23253000000000        4.42508600000000
H           -0.96921900000000        5.26958400000000        5.17612800000000
H            0.67495000000000        5.57650200000000        6.98106400000000
H            1.80873700000000        6.34388000000000        5.87946100000000
H            0.62678200000000        8.06623400000000        7.16164100000000
H           -0.93927200000000        7.40391700000000        6.70040900000000
H           -0.45549800000000        9.36864900000000        5.31962400000000
H            1.11056300000000        8.71311400000000        4.84897800000000
H           -1.63735800000000        7.58577200000000        4.12320200000000
H           -0.50360400000000        8.36839900000000        3.03254500000000
H            1.14052600000000        6.56452300000000        3.34475500000000
H            1.18901800000000        5.17731800000000        1.67462000000000
C           -1.50617000000000       -3.69994000000000       -2.49225000000000
N           -1.09337700000000       -4.05353900000000       -3.65638900000000
C           -0.59047400000000       -5.44074000000000       -3.70859500000000
C           -1.14027400000000       -6.09129000000000       -4.98340400000000
C           -0.58016600000000       -7.49706800000000       -5.18285400000000
C            0.94575300000000       -7.50240000000000       -5.17526400000000
C            1.50588300000000       -6.84570100000000       -3.91642000000000
C            0.95595400000000       -5.42700900000000       -3.72806900000000
N            1.45892800000000       -4.91532500000000       -2.43755900000000
C            1.87153100000000       -3.69994000000000       -2.49225000000000
H           -1.50154500000000       -4.34513000000000       -1.59724700000000
H           -0.93867500000000       -6.02927500000000       -2.84737700000000
H           -2.23520000000000       -6.13547600000000       -4.93616300000000
H           -0.89269900000000       -5.47316500000000       -5.85644000000000
H           -0.94519200000000       -7.90822800000000       -6.13070300000000
H           -0.95098700000000       -8.15342300000000       -4.38606300000000
H            1.31075800000000       -8.53302600000000       -5.24698600000000
H            1.31656500000000       -6.96997100000000       -6.05976100000000
H            1.25828800000000       -7.46279700000000       -3.04273500000000
H            2.60065600000000       -6.81583200000000       -3.97382100000000
H            1.30426900000000       -4.81118400000000       -4.56995600000000
H            1.86702500000000       -3.07107800000000       -3.39889900000000
C           -4.14207000000000        1.18439500000000       -2.86820000000000
N           -4.98826500000000        2.14959800000000       -2.81353100000000
C           -5.17988900000000        2.84093500000000       -4.10399600000000
C           -6.68346300000000        3.07417000000000       -4.29240500000000
C           -6.97207100000000        3.88755500000000       -5.55130300000000
C           -6.20445400000000        5.20635000000000       -5.55886000000000
C           -4.70697500000000        4.98856200000000       -5.35933100000000
C           -4.41861100000000        4.18707200000000       -4.08455900000000
N           -2.96571700000000        3.92902800000000       -4.03230800000000
C           -2.45322000000000        4.10957000000000       -2.86820000000000
H           -3.59524100000000        0.87402300000000       -3.77482500000000
H           -4.82070200000000        2.23149100000000       -4.94594400000000
H           -7.20511000000000        2.11103100000000       -4.34981100000000
H           -7.09407000000000        3.59710800000000       -3.41862100000000
H           -8.04719200000000        4.08678000000000       -5.62300000000000
H           -6.69637700000000        3.30019500000000       -6.43571700000000
H           -6.37802800000000        5.72803300000000       -6.50663700000000
H           -6.58753800000000        5.85570100000000       -4.76204900000000
H           -4.29555100000000        4.46512800000000       -6.23236300000000
H           -4.19783300000000        5.95874400000000       -5.31203700000000
H           -4.75408000000000        4.78295400000000       -3.22332500000000
H           -3.01421300000000        4.42825600000000       -1.97308800000000
C            4.22477200000000        0.47364600000000       -2.67162700000000
N            4.32460100000000        1.00793500000000       -3.83576600000000
C            5.27450100000000        2.13706300000000       -3.88797200000000
C            6.11279300000000        1.98619600000000       -5.16278100000000
C            7.05017900000000        3.17415400000000       -5.36223000000000
C            6.29183700000000        4.49830400000000       -5.35464100000000
C            5.44305400000000        4.65504100000000       -4.09579700000000
C            4.48939600000000        3.46944300000000       -3.90744600000000
N            3.79477700000000        3.64918900000000       -2.61693600000000
C            2.53592100000000        3.39882100000000       -2.67162700000000
H            4.78121100000000        0.80024700000000       -1.77662400000000
H            5.95828800000000        2.12977900000000       -3.02675400000000
H            6.69852300000000        1.06005600000000       -5.11554000000000
H            5.45369500000000        1.89154000000000       -6.03581600000000
H            7.58876800000000        3.06361100000000       -6.31008000000000
H            7.80401000000000        3.18119100000000       -4.56544000000000
H            7.00188400000000        5.32972000000000       -5.42636200000000
H            5.64533400000000        4.55322200000000       -6.23913800000000
H            6.10127300000000        4.74916500000000       -3.22211200000000
H            4.86980000000000        5.58820700000000       -4.15319800000000
H            3.78191800000000        3.46318000000000       -4.74933300000000
H            1.99356400000000        3.08048800000000       -3.57827600000000
168
 energy: -30.637200268351 gnorm: 0.380549899167 xtb: 6.7.1 (edcfbbe)
C            0.27088205508459       -1.12767265364381        5.17573246219959
C           -0.93439593167744       -0.41799605596087        5.14782314738204
C           -0.93638044694481        0.97856073625759        5.16916320559617
C            0.27371404193704        1.68532972465294        5.12802115768451
C            1.48468987409379        0.96775395772796        5.16176989771660
C            1.47719840255365       -0.44649715939953        5.16260704424488
H            0.27103837590403       -2.20976585154579        5.16681301898762
H           -1.87655109973406        1.51223342949525        5.16193613245545
H            2.42320223148293        1.50691617853628        5.16361631368054
C           -4.06093882475347       -0.34937856256335       -0.63283873939068
C           -3.63886637651772       -1.52856795256874        0.03216111663672
C           -2.84355708500080       -2.45070033630829       -0.64455305105286
C           -2.43372054521169       -2.24787482363972       -1.96786629801491
C           -2.84490604061176       -1.05800739350264       -2.61731498428222
C           -3.66497241381109       -0.11160710836905       -1.96161515529812
H           -4.68689832365498        0.37732317356420       -0.12557365377560
H           -2.53921500032847       -3.34295824703816       -0.12754092805485
H           -2.53852125719485       -0.86585277014878       -3.63649702442926
C            2.88940471161746       -3.04408691722745       -0.05906915019263
C            3.71338667859322       -2.11172037017244        0.60357602770138
C            4.09981188958391       -0.93981339285229       -0.07272328375152
C            3.70035538211801       -0.70619293527225       -1.41378402190814
C            2.88752140876542       -1.63754731791760       -2.04034285617528
C            2.49220021550846       -2.80906138881148       -1.38781986407158
H            2.57496256898594       -3.94848073402021        0.44797059782083
H            4.72303890166789       -0.22358737336637        0.44320069357268
H            2.57559325407638       -1.46245516454074       -3.05860782409840
C            1.46779343474103        4.53428605868240       -0.62727233271235
C            0.24663059867156        4.76054211449167        0.03486260001140
C           -0.95627316397995        4.53337195085350       -0.64455510341755
C           -0.97324825244614        4.09017948692220       -1.98180509242505
C            0.24351885401048        3.84445895546316       -2.61696885737088
C            1.45515597640240        4.05979411907057       -1.94449803316825
H            2.41334736986866        4.70900637869925       -0.12471028521729
H           -1.88409041094540        4.71548474626545       -0.12947657503827
H            0.25735514550665        3.47691912410182       -3.63556681622351
C           -2.10567097978846       -1.16918056005920        4.48459342317144
N           -3.36655144070881       -1.04172826146196        4.68342465994439
C           -4.07604170415538       -2.28908638921703        4.92385861814391
C           -5.03299612136582       -2.08544085653039        6.11110404144474
C           -5.88115644858009       -3.32669278281575        6.38481171375845
C           -6.64009578988777       -3.77413580464140        5.13627266951240
C           -5.69894208780965       -3.98252275592828        3.94723504701268
C           -4.84679020834099       -2.73282516012312        3.64836447631331
N           -3.92260798554787       -3.01609936559363        2.54554244285569
C           -3.84385433079531       -2.09520341888298        1.63858334094534
H           -1.60502882233843       -2.14121233762664        4.43458440013432
H           -3.37043555620307       -3.09134220429150        5.19945276059613
H           -4.45784172965105       -1.82496772168986        7.00879529612112
H           -5.68826055810251       -1.23003251055376        5.90820949483553
H           -6.59090640962243       -3.11832018714524        7.19497765328968
H           -5.23446888670591       -4.14176345306129        6.73143420669130
H           -7.18201194026821       -4.70452122758201        5.34787475790871
H           -7.39447057130960       -3.02081721650297        4.87784245503294
H           -5.04104320219992       -4.83588505876815        4.14886761862634
H           -6.28382153093849       -4.24839626968703        3.05827955812270
H           -5.53988794807018       -1.92189340582090        3.37056490165910
H           -4.38773898547340       -1.15807280671483        1.73372369016930
C            2.71301194196818       -1.47419915198629        4.87491097029722
N            3.22295606018530       -2.64265870315882        5.07404002909648
C            4.66436208021821       -2.65114660935360        5.31902436814357
C            4.97154790042085       -3.58401606445603        6.50637041201041
C            6.47183573723379       -3.69849489185457        6.78046057874756
C            7.23938042600922       -4.13247987224968        5.53236228390585
C            6.94889445858031       -3.21331898628500        4.34354254872761
C            5.43979878004796       -3.09840157725118        4.04451893437428
N            5.22524320664931       -2.14503583052153        2.95248171510738
C            4.37873294244282       -2.50913977347444        2.04981375680433
H            3.32712048657635       -0.57227501027847        4.83849294150235
H            5.01361771109122       -1.64184473117907        5.59576618464489
H            4.46006685920372       -3.21710915203407        7.40517942860601
H            4.55979985724683       -4.57985183309571        6.30423569215980
H            6.64667341446650       -4.41740642116600        7.59084479650967
H            6.85498931022481       -2.73117131155961        7.12742410134315
H            8.31617692628850       -4.13638871793226        5.74407697457630
H            6.96439440024540       -5.16242361663139        5.27404777640619
H            7.35944225539212       -2.21689995909109        4.54530560138639
H            7.47198838059926       -3.58658794601077        3.45456133458723
H            5.08390705022038       -4.10384107926429        3.76481251700505
H            3.86112944379648       -3.46748049873505        2.10990972101911
C            0.08267998005155        3.17698897814352        4.48298206531131
N            0.81153029106348        4.22241943127898        4.65546955006617
C            0.08546197403177        5.46755294159072        4.89421483188969
C            0.73992118117700        6.20045910930901        6.08091229238277
C            0.08926653566678        7.55655345226948        6.35533880923853
C            0.08136719242507        8.43818496926747        5.10737578255140
C           -0.56950253608807        7.72711243148582        3.91897224682889
C            0.08596237037636        6.36345453531584        3.62154916196683
N           -0.62940151895565        5.71038014709524        2.52365619140375
C            0.11829927374343        5.17863922315148        1.61576988776350
H           -1.00830261266354        3.23564711375535        4.41293749797900
H           -0.96259424465109        5.26320617784540        5.17066616494431
H            0.67834718102460        5.57363358807083        6.97971239633468
H            1.80844034632068        6.34128007867121        5.87880259491866
H            0.62463129750309        8.06718092691026        7.16567817008099
H           -0.93994379580186        7.40450524016344        6.70225940373947
H           -0.45352127761144        9.37263731957155        5.31891576294064
H            1.11089041718673        8.71478663992392        4.84884527775335
H           -1.63765249860053        7.58425214640252        4.12015323144373
H           -0.50737212022072        8.36632174264587        3.02952814299960
H            1.13452023179072        6.55799642027835        3.34103565432902
H            1.20589332314642        5.17656501778011        1.69790352656618
C           -1.55289644123700       -3.64547819630574       -2.47586134998656
N           -1.11344511335587       -4.03546401240965       -3.62289272029206
C           -0.60035907954504       -5.41136093047612       -3.70361949785927
C           -1.14114005154257       -6.08707726276870       -4.98180234611705
C           -0.58134906247112       -7.49760480326333       -5.18217631993902
C            0.94678397282720       -7.50296680012612       -5.17655872522904
C            1.50601441360526       -6.84554003030215       -3.91440005024550
C            0.95788148445969       -5.42092528857719       -3.70808183908849
N            1.46059475105919       -4.89959288255652       -2.44355651115231
C            1.87076413025981       -3.68940684670405       -2.47918116196331
H           -1.50813863522345       -4.31199625099662       -1.60708018963928
H           -0.94021775004076       -6.01593576470818       -2.84628496486350
H           -2.23648991127394       -6.13055470012968       -4.93752287813046
H           -0.89400815801007       -5.47057560154256       -5.85432392052063
H           -0.94807629377036       -7.91136694177439       -6.13033218324631
H           -0.95215013347327       -8.15478744569042       -4.38627351596529
H            1.31351302788558       -8.53440921205259       -5.25058587384386
H            1.31766295757101       -6.97083392531350       -6.06102411348717
H            1.25954503801846       -7.46109906112539       -3.04133886120009
H            2.60151997490182       -6.81505591633542       -3.96895857384603
H            1.30333646576315       -4.80759695654196       -4.55800482817985
H            1.85922951068636       -3.09064333800806       -3.39442679424884
C           -4.12713546411398        1.14571467483524       -2.85621969164288
N           -4.96664322786629        2.12050930552842       -2.81627006197096
C           -5.17279203111346        2.83020849595463       -4.08132518864938
C           -6.68189611719115        3.07285518901797       -4.28973095660844
C           -6.97246559522610        3.88651883586236       -5.55229524365200
C           -6.20408750662288        5.20743093026805       -5.55839717902091
C           -4.70250011831973        4.98710797484622       -5.35800001718094
C           -4.39049020942912        4.17962683339258       -4.07987531935394
N           -2.94587879348203        3.93518869787313       -3.98705562119188
C           -2.41543510376620        4.11134389283082       -2.82295105017264
H           -3.59664489077402        0.88448612654696       -3.77511131255994
H           -4.81677204532703        2.22922943394056       -4.93473091733588
H           -7.20502506685469        2.10987711193144       -4.34491762723268
H           -7.09239706854499        3.59480032008938       -3.41709807617212
H           -8.04934184667094        4.08489661841306       -5.62626372041329
H           -6.69757808891262        3.29953444813861       -6.43699620250036
H           -6.37933635853792        5.73200140687711       -6.50638437309036
H           -6.58799109312083        5.85718123972768       -4.76237111402842
H           -4.29230704090690        4.46517870837835       -6.23056380964479
H           -4.19259208920156        5.95734675357156       -5.31312472873986
H           -4.74434989028601        4.77679029547737       -3.22287257843680
H           -3.01697465808046        4.42717756983759       -1.97188654130417
C            4.22624926259209        0.44540836408422       -2.60369927088618
N            4.32341754590654        0.98622922771512       -3.77674483868338
C            5.25659319737751        2.11466964843885       -3.88347911317195
C            6.10996383845326        1.98210883321591       -5.16179085168490
C            7.05129784725132        3.17306906814690       -5.36183840474646
C            6.29252946441492        4.49959714834560       -5.35646483593938
C            5.44452152991091        4.65545648155679       -4.09502650480558
C            4.48918941413044        3.46726436072007       -3.89172693023083
N            3.78695210300194        3.65334815063834       -2.63334129502405
C            2.53149246612821        3.41077721607577       -2.68273599735243
H            4.80146775377368        0.82355289826841       -1.76425897772844
H            5.95012997780383        2.12510272213214       -3.02671906544896
H            6.69524120405222        1.05576247246574       -5.11710844950074
H            5.45198003724098        1.88863130535332       -6.03384166833531
H            7.59308276808143        3.06258975511651       -6.30983960001766
H            7.80575605983813        3.18074738806191       -4.56577965298433
H            7.00209324382903        5.33293033712855       -5.43028933009375
H            5.64570618077389        4.55467465842357       -6.24053251944170
H            6.09961403180600        4.74958050330634       -3.22103571594205
H            4.86871797039012        5.58819492348792       -4.14881825379719
H            3.78168420662758        3.46009531150445       -4.73889837373266
H            2.02421352335103        3.06100176560857       -3.58629082280956
168
 energy: -30.820058166587 gnorm: 0.170123384310 xtb: 6.7.1 (edcfbbe)
C            0.26450449539898       -1.12631528306655        5.18134745962843
C           -0.94424820981240       -0.41331803130191        5.11965415066230
C           -0.93158686879823        0.98316513103174        5.16924807896142
C            0.27482632526635        1.71429429119124        5.08543465873460
C            1.48180383866447        0.95713714110895        5.15419658266822
C            1.48000198147240       -0.48228645648983        5.15618276553304
H            0.26738509571034       -2.20428821371212        5.16203669463854
H           -1.87267366540950        1.50734327716548        5.15489411831202
H            2.41696426215228        1.49630016492381        5.15814030363785
C           -4.05329666425576       -0.36799861140086       -0.62372930231032
C           -3.61986327794241       -1.56713768759822        0.06288897448967
C           -2.83495903801033       -2.46101081439316       -0.65266041365699
C           -2.40467820550490       -2.30840354577144       -1.98536417714135
C           -2.83731162496460       -1.08152545009963       -2.60990897764025
C           -3.67314343038370       -0.10669109670994       -1.96906992682063
H           -4.67833039689023        0.36290304544413       -0.12639585207662
H           -2.53878615097810       -3.34374703260223       -0.12678357196036
H           -2.53858474706036       -0.87513460580488       -3.62583801082739
C            2.89659854029121       -3.03678163190266       -0.06314468433727
C            3.74213034502655       -2.10772794606495        0.62013657446391
C            4.10136404675804       -0.93285996556703       -0.09518439820031
C            3.70999238950953       -0.68456063087822       -1.46915162281399
C            2.88887872977712       -1.63001891812315       -2.03991449220559
C            2.49741070238444       -2.81360968833023       -1.40738188612016
H            2.57987965203790       -3.93996942320568        0.43891135427832
H            4.72047196383116       -0.22521789575471        0.43005972583215
H            2.58030418021577       -1.46075315413642       -3.05581431269434
C            1.44784274158286        4.53428390444651       -0.61499879495950
C            0.21611737851026        4.76286073003926        0.06451660317787
C           -0.96693553114860        4.53213412666537       -0.65610368684663
C           -1.01868412352742        4.10796729509404       -2.01795643867484
C            0.21651292006301        3.85292917430530       -2.61273988033762
C            1.43304703581300        4.04306198743253       -1.93232096444087
H            2.39981878762863        4.70384176446820       -0.12752677691881
H           -1.88441433730957        4.71463794983357       -0.13371108150400
H            0.24778952600008        3.48106361865415       -3.62672853464221
C           -2.07621830026030       -1.17629987899508        4.52749130825389
N           -3.34436621666015       -1.06590459018850        4.69644538351143
C           -4.07406643845026       -2.27175539090464        4.91528384299657
C           -5.03469646415839       -2.08406847294933        6.11087729782066
C           -5.88125472957138       -3.32794636978251        6.38621244255491
C           -6.64097093824670       -3.77402593806739        5.13462180622954
C           -5.69559826198181       -3.98378345368139        3.94311056927576
C           -4.82728203908788       -2.73830881474220        3.62697731676290
N           -3.93692866872969       -2.96258557756597        2.50172849209864