      -----------------------------------------------------------      
     |                   =====================                   |     
     |                           x T B                           |     
     |                   =====================                   |     
     |                         S. Grimme                         |     
     |          Mulliken Center for Theoretical Chemistry        |     
     |                    University of Bonn                     |     
      -----------------------------------------------------------      

   * xtb version 6.7.1 (edcfbbe) compiled by 'conda@3ef47c1a292c' on 2024-11-25

   xtb is free software: you can redistribute it and/or modify it under
   the terms of the GNU Lesser General Public License as published by
   the Free Software Foundation, either version 3 of the License, or
   (at your option) any later version.
   
   xtb is distributed in the hope that it will be useful,
   but WITHOUT ANY WARRANTY; without even the implied warranty of
   MERCHANTABILITY or FITNESS FOR A PARTICULAR PURPOSE.  See the
   GNU Lesser General Public License for more details.
   
   Cite this work as:
   * C. Bannwarth, E. Caldeweyher, S. Ehlert, A. Hansen, P. Pracht,
     J. Seibert, S. Spicher, S. Grimme, WIREs Comput. Mol. Sci., 2020, 11,
     e01493. DOI: 10.1002/wcms.1493
   
   for GFN2-xTB:
   * C. Bannwarth, S. Ehlert and S. Grimme., J. Chem. Theory Comput., 2019,
     15, 1652-1671. DOI: 10.1021/acs.jctc.8b01176
   for GFN1-xTB:
   * S. Grimme, C. Bannwarth, P. Shushkov, J. Chem. Theory Comput., 2017,
     13, 1989-2009. DOI: 10.1021/acs.jctc.7b00118
   for GFN0-xTB:
   * P. Pracht, E. Caldeweyher, S. Ehlert, S. Grimme, ChemRxiv, 2019, preprint.
     DOI: 10.26434/chemrxiv.8326202.v1
   for GFN-FF:
   * S. Spicher and S. Grimme, Angew. Chem. Int. Ed., 2020, 59, 15665-15673.
     DOI: 10.1002/anie.202004239
   
   for ALPB and GBSA implicit solvation:
   * S. Ehlert, M. Stahn, S. Spicher, S. Grimme, J. Chem. Theory Comput.,
     2021, 17, 4250-4261. DOI: 10.1021/acs.jctc.1c00471
   
   for ddCOSMO and CPCM-X implicit solvation:
   * M. Stahn, S. Ehlert, S. Grimme, J. Phys. Chem. A,
     2023, XX, XXXX-XXXX. DOI: 10.1021/acs.jpca.3c04382
   
   for DFT-D4:
   * E. Caldeweyher, C. Bannwarth and S. Grimme, J. Chem. Phys., 2017,
     147, 034112. DOI: 10.1063/1.4993215
   * E. Caldeweyher, S. Ehlert, A. Hansen, H. Neugebauer, S. Spicher,
     C. Bannwarth and S. Grimme, J. Chem. Phys., 2019, 150, 154122.
     DOI: 10.1063/1.5090222
   * E. Caldeweyher, J.-M. Mewes, S. Ehlert and S. Grimme, Phys. Chem. Chem. Phys.
     2020, 22, 8499-8512. DOI: 10.1039/D0CP00502A
   
   for sTDA-xTB:
   * S. Grimme and C. Bannwarth, J. Chem. Phys., 2016, 145, 054103.
     DOI: 10.1063/1.4959605
   
   in the mass-spec context:
   * V. Asgeirsson, C. Bauer and S. Grimme, Chem. Sci., 2017, 8, 4879.
     DOI: 10.1039/c7sc00601b
   * J. Koopman and S. Grimme, ACS Omega 2019, 4, 12, 15120-15133.
     DOI: 10.1021/acsomega.9b02011
   
   for metadynamics refer to:
   * S. Grimme, J. Chem. Theory Comput., 2019, 155, 2847-2862
     DOI: 10.1021/acs.jctc.9b00143
   
   for SPH calculations refer to:
   * S. Spicher and S. Grimme, J. Chem. Theory Comput., 2021, 17, 1701-1714
     DOI: 10.1021/acs.jctc.0c01306
   
   for ONIOM refer to:
   * C. Plett, A. Katbashev, S. Ehlert, S. Grimme, M. Bursch,
     Phys. Chem. Chem. Phys., 2023, 25, 17860-17868. DOI: 10.1039/D3CP02178E
   
   for DIPRO refer to:
   * J. Kohn, N. Gildemeister, S. Grimme, D. Fazzi, A. Hansen,
     J. Chem. Phys., 2023, just accepted.
   
   for PTB refer to:
   * S. Grimme, M. Mueller, A. Hansen, J. Chem. Phys., 2023, 158, 124111.
     DOI: 10.1063/5.0137838
   
   with help from (in alphabetical order)
   P. Atkinson, C. Bannwarth, F. Bohle, G. Brandenburg, E. Caldeweyher
   M. Checinski, S. Dohm, S. Ehlert, S. Ehrlich, I. Gerasimov, C. Hölzer
   A. Katbashev, J. Kohn, J. Koopman, C. Lavigne, S. Lehtola, F. März, M. Müller,
   F. Musil, H. Neugebauer, J. Pisarek, C. Plett, P. Pracht, F. Pultar,
   J. Seibert, P. Shushkov, S. Spicher, M. Stahn, M. Steiner, T. Strunk,
   J. Stückrath, T. Rose, and J. Unsleber
   
 * started run on 2024/12/18 at 20:50:29.891     
   ID    Z sym.   atoms
    1   26 Fe     1, 41, 81, 121
    2    6 C      2-4, 6-8, 15-17, 19-21, 28-30, 32-34, 42-44, 46-48, 55-57,
                  59-61, 68-70, 72-74, 82-84, 86-88, 95-97, 99-101, 108-110,
                  112-114, 122-124, 126-128, 135-137, 139-141, 148-150,
                  152-154, 161-172, 181-192, 201-212, 221-232, 241-252,
                  261-272
    3    7 N      5, 9, 18, 22, 31, 35, 45, 49, 58, 62, 71, 75, 85, 89, 98,
                  102, 111, 115, 125, 129, 138, 142, 151, 155
    4    1 H      10-14, 23-27, 36-40, 50-54, 63-67, 76-80, 90-94, 103-107,
                  116-120, 130-134, 143-147, 156-160, 173-180, 193-200,
                  213-220, 233-240, 253-260, 273-280

           -------------------------------------------------
          |                Calculation Setup                |
           -------------------------------------------------

          program call               : /home/atarzia/miniforge3/envs/template/bin/xtb input_structure_ff.xyz --gfnff --opt normal --parallel 6 --chrg 8
          coordinate file            : input_structure_ff.xyz
          omp threads                :                     6


molecular fragmentation (1/2 indicates fragments):
111111111111121111112211112222222222222211111111111112111111221111222222
222222222222222222222222222222222222222222222222222222222222222222222222
222222222222222211111111111111111111222222222222222222222222222222222222
2222222222222222222222222222222222222222222222222222222222222222
# atoms in fragment 1/2:    66   214
 fragment masses (1/2) :      628.29     1769.66
CMA distance (Bohr)    :  15.455
constraining FC (au)   :  0.0500

          ==================== Thresholds ====================
          CN  :   150.00000
          rep :   500.00000
          disp:  2500.00000
          HB1 :   250.00000
          HB2 :   450.00000

          Pauling EN used:
          Z : 1  EN :  2.20
          Z : 6  EN :  2.55
          Z : 7  EN :  3.04
          Z :26  EN :  1.83
          electric field strengths (au): 0.000

           ------------------------------------------------- 
          |           Force Field Initialization            |
           ------------------------------------------------- 

          distances ...
          ----------------------------------------
          generating topology and atomic info file ...
          pair mat ...
          computing topology distances matrix with Floyd-Warshall algo ...
          making topology EEQ charges ...
          #fragments for EEQ constrain: 1
          ----------------------------------------
          generating topology and atomic info file ...
          pair mat ...
          computing topology distances matrix with Floyd-Warshall algo ...
          making topology EEQ charges ...
          #fragments for EEQ constrain: 1
          rings ...
          # BATM   4464
          # H in HB   108
          doing iterative Hueckel for 6 subsystem(s) ...

  atom   neighbors  erfCN metchar sp-hybrid imet pi  qest     coordinates
    1  Fe      6    4.28   0.10         0    2    0   0.340   -1.604168    3.004744   14.880248
    2  C       3    2.81   0.00         2    0    1  -0.009   -7.856276    8.585481   17.937518
    3  C       3    2.80   0.00         2    0    1  -0.008   -5.789142    8.642713   19.564586
    4  C       3    2.81   0.00         2    0    1   0.016   -3.819460    6.929981   19.212082
    5  N       3    2.67   0.00         2    0    1  -0.161   -3.898110    5.235144   17.274996
    6  C       3    2.97   0.00         2    0    1   0.048   -5.924478    5.132594   15.637852
    7  C       3    2.81   0.00         2    0    1  -0.011   -7.944488    6.813258   15.988907
    8  C       3    3.01   0.00         2    0    1   0.018   -6.216494    3.134177   13.651176
    9  N       3    2.67   0.00         2    0    1  -0.169   -4.410135    2.397484   12.117168
   10  H       1    0.97   0.00         0    0    0   0.093   -9.405702    9.893130   18.203921
   11  H       1    0.97   0.00         0    0    0   0.094   -5.719322    9.993881   21.098696
   12  H       1    0.97   0.00         0    0    0   0.091   -2.236107    6.940029   20.500201
   13  H       1    0.97   0.00         0    0    0   0.095   -9.581465    6.750321   14.761512
   14  H       1    0.97   0.00         0    0    0   0.092   -8.110187    2.391123   13.382199
   15  C       3    2.81   0.00         2    0    1  -0.009   -1.639521   -4.390276   19.664671
   16  C       3    2.80   0.00         2    0    1  -0.008   -3.618865   -2.818241   20.408360
   17  C       3    2.81   0.00         2    0    1   0.016   -4.205257   -0.708506   18.943590
   18  N       3    2.70   0.00         2    0    1  -0.161   -2.844769   -0.194612   16.825292
   19  C       3    2.96   0.00         2    0    1   0.048   -0.868514   -1.680212   16.053985
   20  C       3    2.81   0.00         2    0    1  -0.011   -0.266975   -3.836446   17.480033
   21  C       3    2.95   0.00         2    0    1   0.018    0.546401   -1.229613   13.647277
   22  N       3    2.67   0.00         2    0    1  -0.169    0.777252    0.941346   12.441995
   23  H       1    0.97   0.00         0    0    0   0.093   -1.172503   -6.042409   20.775643
   24  H       1    0.97   0.00         0    0    0   0.094   -4.694282   -3.236630   22.096038
   25  H       1    0.97   0.00         0    0    0   0.091   -5.745606    0.520792   19.486693
   26  H       1    0.97   0.00         0    0    0   0.095    1.254693   -5.080334   16.908287
   27  H       1    0.97   0.00         0    0    0   0.092    1.421981   -2.905176   12.848029
   28  C       3    2.81   0.00         2    0    1  -0.009    3.672484    6.446978   21.154853
   29  C       3    2.80   0.00         2    0    1  -0.008    3.023329    3.978973   21.799922
   30  C       3    2.81   0.00         2    0    1   0.016    1.704784    2.498396   20.067196
   31  N       3    2.69   0.00         2    0    1  -0.161    1.046373    3.461636   17.774970
   32  C       3    2.96   0.00         2    0    1   0.048    1.628912    5.910103   17.088206
   33  C       3    2.81   0.00         2    0    1  -0.011    2.995365    7.413020   18.798166
   34  C       3    2.97   0.00         2    0    1   0.018    1.034997    7.048125   14.539670
   35  N       3    2.66   0.00         2    0    1  -0.169   -0.870699    6.465658   13.031232
   36  H       1    0.97   0.00         0    0    0   0.093    4.707432    7.611118   22.480146
   37  H       1    0.97   0.00         0    0    0   0.094    3.543588    3.216928   23.624640
   38  H       1    0.97   0.00         0    0    0   0.091    1.213064    0.577515   20.550806
   39  H       1    0.97   0.00         0    0    0   0.095    3.520242    9.332112   18.318688
   40  H       1    0.97   0.00         0    0    0   0.092    2.326776    8.529481   13.977461
   41  Fe      6    4.28   0.10         0    2    0   0.340  -11.091816  -10.969023   -3.797512
   42  C       3    2.81   0.00         2    0    1  -0.009   -9.281859  -19.592971   -2.729881
   43  C       3    2.80   0.00         2    0    1  -0.008  -11.165728  -19.342286   -4.550961
   44  C       3    2.81   0.00         2    0    1   0.016  -12.277403  -16.986194   -4.943692
   45  N       3    2.67   0.00         2    0    1  -0.161  -11.502171  -14.938070   -3.588227
   46  C       3    2.98   0.00         2    0    1   0.048   -9.650801  -15.137326   -1.767021
   47  C       3    2.81   0.00         2    0    1  -0.011   -8.541093  -17.499642   -1.310544
   48  C       3    3.02   0.00         2    0    1   0.018   -8.963733  -13.005318   -0.045641
   49  N       3    2.67   0.00         2    0    1  -0.169   -8.471884  -10.695251   -0.804381
   50  H       1    0.97   0.00         0    0    0   0.093   -8.417192  -21.416140   -2.395351
   51  H       1    0.97   0.00         0    0    0   0.094  -11.772771  -20.964427   -5.638665
   52  H       1    0.97   0.00         0    0    0   0.091  -13.773464  -16.796216   -6.320860
   53  H       1    0.97   0.00         0    0    0   0.095   -7.112050  -17.719569    0.138504
   54  H       1    0.97   0.00         0    0    0   0.092   -8.719958  -13.478621    1.934307
   55  C       3    2.81   0.00         2    0    1  -0.009  -18.544285   -8.496876    0.405628
   56  C       3    2.80   0.00         2    0    1  -0.008  -18.114828  -11.075343    0.731260
   57  C       3    2.81   0.00         2    0    1   0.016  -15.838241  -12.113677   -0.092602
   58  N       3    2.69   0.00         2    0    1  -0.161  -14.071048  -10.617470   -1.205231
   59  C       3    2.93   0.00         2    0    1   0.048  -14.436387   -8.077466   -1.575395
   60  C       3    2.81   0.00         2    0    1  -0.011  -16.705287   -6.987678   -0.735914
   61  C       3    2.94   0.00         2    0    1   0.018  -12.471608   -6.369116   -2.697522
   62  N       3    2.68   0.00         2    0    1  -0.169  -10.584350   -7.066570   -4.164873
   63  H       1    0.97   0.00         0    0    0   0.093  -20.298516   -7.662596    1.048556
   64  H       1    0.97   0.00         0    0    0   0.094  -19.529373  -12.256391    1.617350
   65  H       1    0.97   0.00         0    0    0   0.091  -15.471549  -14.109068    0.155574
   66  H       1    0.97   0.00         0    0    0   0.095  -17.054109   -4.983385   -0.963010
   67  H       1    0.97   0.00         0    0    0   0.092  -12.716390   -4.373096   -2.289023
   68  C       3    2.81   0.00         2    0    1  -0.009  -15.810499  -13.496231  -10.887043
   69  C       3    2.80   0.00         2    0    1  -0.008  -17.425541  -12.576562   -9.021643
   70  C       3    2.81   0.00         2    0    1   0.016  -16.401415  -11.465121   -6.864642
   71  N       3    2.70   0.00         2    0    1  -0.161  -13.851562  -11.300105   -6.584288
   72  C       3    2.96   0.00         2    0    1   0.048  -12.194505  -12.214035   -8.379076
   73  C       3    2.81   0.00         2    0    1  -0.011  -13.197413  -13.303689  -10.582540
   74  C       3    2.97   0.00         2    0    1   0.018   -9.353368  -11.967052   -8.212120
   75  N       3    2.66   0.00         2    0    1  -0.169   -7.967919  -11.820832   -6.136447
   76  H       1    0.97   0.00         0    0    0   0.093  -16.583001  -14.351850  -12.576500
   77  H       1    0.97   0.00         0    0    0   0.094  -19.453081  -12.712874   -9.250553
   78  H       1    0.97   0.00         0    0    0   0.091  -17.637704  -10.728799   -5.415199
   79  H       1    0.97   0.00         0    0    0   0.095  -11.965079  -14.017002  -12.053159
   80  H       1    0.97   0.00         0    0    0   0.092   -8.420941  -11.919349  -10.031948
   81  Fe      6    4.28   0.10         0    2    0   0.340   13.601776   -5.384215   -4.208645
   82  C       3    2.81   0.00         2    0    1  -0.009   21.023437   -0.424293   -3.306868
   83  C       3    2.80   0.00         2    0    1  -0.008   21.465626   -2.456289   -4.918747
   84  C       3    2.81   0.00         2    0    1   0.016   19.545757   -4.206513   -5.342023
   85  N       3    2.70   0.00         2    0    1  -0.161   17.260097   -3.923933   -4.195224
   86  C       3    2.93   0.00         2    0    1   0.048   16.751413   -1.934934   -2.589630
   87  C       3    2.81   0.00         2    0    1  -0.011   18.676596   -0.159470   -2.137874
   88  C       3    2.94   0.00         2    0    1   0.018   14.266261   -1.521524   -1.229263
   89  N       3    2.66   0.00         2    0    1  -0.169   12.126904   -2.754673   -1.572197
   90  H       1    0.97   0.00         0    0    0   0.093   22.501113    0.949219   -2.961142
   91  H       1    0.97   0.00         0    0    0   0.094   23.282582   -2.673849   -5.831468
   92  H       1    0.97   0.00         0    0    0   0.091   19.878409   -5.789720   -6.587856
   93  H       1    0.97   0.00         0    0    0   0.095   18.365868    1.434427   -0.890628
   94  H       1    0.97   0.00         0    0    0   0.092   14.296840   -0.019887    0.170852
   95  C       3    2.81   0.00         2    0    1  -0.009   15.078554  -12.474220    0.856101
   96  C       3    2.80   0.00         2    0    1  -0.008   17.025198  -10.721201    1.123601
   97  C       3    2.81   0.00         2    0    1   0.016   16.760720   -8.332819    0.045474
   98  N       3    2.71   0.00         2    0    1  -0.161   14.630084   -7.741271   -1.263768
   99  C       3    2.95   0.00         2    0    1   0.048   12.679148   -9.414241   -1.572417
  100  C       3    2.81   0.00         2    0    1  -0.011   12.898932  -11.826668   -0.482288
  101  C       3    2.95   0.00         2    0    1   0.018   10.295787   -8.805931   -2.990174
  102  N       3    2.65   0.00         2    0    1  -0.169    9.841021   -6.797876   -4.399124
  103  H       1    0.97   0.00         0    0    0   0.093   15.256481  -14.335024    1.683840
  104  H       1    0.97   0.00         0    0    0   0.094   18.720793  -11.207244    2.157166
  105  H       1    0.97   0.00         0    0    0   0.091   18.252678   -6.949708    0.240543
  106  H       1    0.97   0.00         0    0    0   0.095   11.400822  -13.207353   -0.675358
  107  H       1    0.97   0.00         0    0    0   0.092    8.809809  -10.210761   -2.783763
  108  C       3    2.81   0.00         2    0    1  -0.009   17.057586   -9.735642  -11.175202
  109  C       3    2.80   0.00         2    0    1  -0.008   17.548082  -11.088516   -8.968604
  110  C       3    2.81   0.00         2    0    1   0.016   16.579051  -10.217076   -6.680133
  111  N       3    2.70   0.00         2    0    1  -0.161   15.180380   -8.061861   -6.608552
  112  C       3    2.98   0.00         2    0    1   0.048   14.683909   -6.658817   -8.753262
  113  C       3    2.81   0.00         2    0    1  -0.011   15.613475   -7.530542  -11.078805
  114  C       3    3.04   0.00         2    0    1   0.018   13.032141   -4.333278   -8.778898
  115  N       3    2.68   0.00         2    0    1  -0.169   12.939391   -2.620243   -6.976279
  116  H       1    0.97   0.00         0    0    0   0.093   17.787845  -10.402343  -12.965462
  117  H       1    0.97   0.00         0    0    0   0.094   18.663294  -12.801513   -9.032384
  118  H       1    0.97   0.00         0    0    0   0.091   16.936874  -11.257924   -4.958226
  119  H       1    0.97   0.00         0    0    0   0.095   15.228611   -6.506199  -12.808414
  120  H       1    0.97   0.00         0    0    0   0.092   11.959020   -4.019221  -10.495176
  121  Fe      6    4.27   0.10         0    2    0   0.340   -2.532314   12.637118   -8.772366
  122  C       3    2.81   0.00         2    0    1  -0.009  -11.263943   13.938726   -8.316496
  123  C       3    2.80   0.00         2    0    1  -0.008  -10.441561   14.100093  -10.810885
  124  C       3    2.81   0.00         2    0    1   0.016   -7.949713   13.470678  -11.384908
  125  N       3    2.72   0.00         2    0    1  -0.161   -6.342839   12.717275   -9.522166
  126  C       3    2.97   0.00         2    0    1   0.048   -7.088015   12.534812   -7.048724
  127  C       3    2.81   0.00         2    0    1  -0.011   -9.598881   13.147125   -6.432135
  128  C       3    2.97   0.00         2    0    1   0.018   -5.405580   11.617694   -4.957160
  129  N       3    2.65   0.00         2    0    1  -0.169   -2.913245   11.423867   -4.959552
  130  H       1    0.97   0.00         0    0    0   0.093  -13.196383   14.415655   -7.842095
  131  H       1    0.97   0.00         0    0    0   0.094  -11.722617   14.703350  -12.286104
  132  H       1    0.97   0.00         0    0    0   0.091   -7.295613   13.576671  -13.317654
  133  H       1    0.97   0.00         0    0    0   0.095  -10.269581   13.017433   -4.502307
  134  H       1    0.97   0.00         0    0    0   0.092   -6.420416   11.143749   -3.234727
  135  C       3    2.81   0.00         2    0    1  -0.009   -0.993442   21.201174   -6.794229
  136  C       3    2.80   0.00         2    0    1  -0.008   -3.547362   20.802103   -7.298309
  137  C       3    2.81   0.00         2    0    1   0.016   -4.415538   18.347606   -7.693160
  138  N       3    2.71   0.00         2    0    1  -0.161   -2.778404   16.367814   -7.596790
  139  C       3    2.93   0.00         2    0    1   0.048   -0.231161   16.697544   -7.128810
  140  C       3    2.81   0.00         2    0    1  -0.011    0.667614   19.154927   -6.695356
  141  C       3    2.91   0.00         2    0    1   0.018    1.637799   14.553911   -6.904179
  142  N       3    2.64   0.00         2    0    1  -0.169    1.445310   12.392314   -8.101900
  143  H       1    0.97   0.00         0    0    0   0.093   -0.298983   23.097017   -6.474859
  144  H       1    0.97   0.00         0    0    0   0.094   -4.845636   22.381017   -7.372578
  145  H       1    0.97   0.00         0    0    0   0.091   -6.395487   18.017420   -8.073141
  146  H       1    0.97   0.00         0    0    0   0.095    2.646110   19.490318   -6.290345
  147  H       1    0.97   0.00         0    0    0   0.092    3.301002   14.910062   -5.763687
  148  C       3    2.81   0.00         2    0    1  -0.009    0.483486   13.648082  -16.860800
  149  C       3    2.80   0.00         2    0    1  -0.008   -0.023344   16.018881  -15.828779
  150  C       3    2.81   0.00         2    0    1   0.016   -1.420386   16.182785  -13.601599
  151  N       3    2.70   0.00         2    0    1  -0.161   -2.256320   14.046412  -12.444502
  152  C       3    3.02   0.00         2    0    1   0.048   -1.755956   11.673148  -13.389363
  153  C       3    2.81   0.00         2    0    1  -0.011   -0.396859   11.471947  -15.658486
  154  C       3    2.99   0.00         2    0    1   0.018   -2.744973    9.272608  -12.221792
  155  N       3    2.66   0.00         2    0    1  -0.169   -2.827573    8.765908   -9.781341
  156  H       1    0.97   0.00         0    0    0   0.093    1.550235   13.495678  -18.599038
  157  H       1    0.97   0.00         0    0    0   0.094    0.649416   17.713756  -16.753603
  158  H       1    0.97   0.00         0    0    0   0.091   -1.845297   18.011639  -12.794083
  159  H       1    0.97   0.00         0    0    0   0.095   -0.004819    9.640081  -16.483830
  160  H       1    0.97   0.00         0    0    0   0.092   -3.192966    7.778239  -13.553428
  161  C       3    2.81   0.00         2    0    1  -0.014   -6.400714   -3.679465    9.131582
  162  C       3    2.81   0.00         2    0    1  -0.014   -5.883683   -1.852277   10.957739
  163  C       3    2.82   0.00         2    0    1   0.039   -4.892437    0.499217   10.249366
  164  C       3    2.81   0.00         2    0    1  -0.014   -4.410982    0.997193    7.695108
  165  C       3    2.81   0.00         2    0    1  -0.014   -4.940789   -0.827118    5.858279
  166  C       3    2.81   0.00         2    0    1   0.015   -5.953881   -3.180322    6.560445
  167  C       3    2.81   0.00         2    0    1   0.015   -6.599619   -5.096140    4.626855
  168  C       3    2.81   0.00         2    0    1  -0.014   -8.867067   -6.462187    4.824798
  169  C       3    2.81   0.00         2    0    1  -0.014   -9.480335   -8.295089    3.038417
  170  C       3    2.83   0.00         2    0    1   0.039   -7.851908   -8.781125    1.006037
  171  C       3    2.81   0.00         2    0    1  -0.014   -5.596367   -7.417833    0.785287
  172  C       3    2.81   0.00         2    0    1  -0.014   -4.968867   -5.584923    2.585238
  173  H       1    0.97   0.00         0    0    0   0.091   -7.141020   -5.490582    9.730946
  174  H       1    0.97   0.00         0    0    0   0.092   -6.242916   -2.271028   12.928038
  175  H       1    0.97   0.00         0    0    0   0.092   -3.621150    2.787922    7.122387
  176  H       1    0.97   0.00         0    0    0   0.091   -4.588830   -0.386413    3.890986
  177  H       1    0.97   0.00         0    0    0   0.091  -10.178433   -6.097326    6.352932
  178  H       1    0.97   0.00         0    0    0   0.092  -11.235811   -9.327350    3.227507
  179  H       1    0.97   0.00         0    0    0   0.092   -4.327609   -7.768539   -0.776267
  180  H       1    0.97   0.00         0    0    0   0.091   -3.201319   -4.571786    2.396564
  181  C       3    2.81   0.00         2    0    1  -0.014    2.435929   -1.300861    5.978761
  182  C       3    2.81   0.00         2    0    1  -0.014    1.134181   -0.964036    8.225048
  183  C       3    2.83   0.00         2    0    1   0.039    1.887564    0.894441    9.970395
  184  C       3    2.81   0.00         2    0    1  -0.014    3.905994    2.487885    9.373650
  185  C       3    2.81   0.00         2    0    1  -0.014    5.241637    2.136662    7.116620
  186  C       3    2.82   0.00         2    0    1   0.015    4.566111    0.171209    5.453117
  187  C       3    2.82   0.00         2    0    1   0.015    6.266150   -0.592454    3.385327
  188  C       3    2.81   0.00         2    0    1  -0.014    7.363684    1.213096    1.791047
  189  C       3    2.81   0.00         2    0    1  -0.014    9.194914    0.482046    0.042360
  190  C       3    2.83   0.00         2    0    1   0.039    9.961790   -2.058242   -0.115602
  191  C       3    2.81   0.00         2    0    1  -0.014    8.801080   -3.870771    1.407838
  192  C       3    2.81   0.00         2    0    1  -0.014    6.956033   -3.148684    3.137788
  193  H       1    0.97   0.00         0    0    0   0.091    1.863412   -2.807532    4.715953
  194  H       1    0.97   0.00         0    0    0   0.092   -0.395015   -2.247276    8.666518
  195  H       1    0.97   0.00         0    0    0   0.092    4.553072    3.871268   10.732361
  196  H       1    0.97   0.00         0    0    0   0.091    6.903175    3.275850    6.759565
  197  H       1    0.97   0.00         0    0    0   0.091    6.854124    3.190440    1.944921
  198  H       1    0.97   0.00         0    0    0   0.092   10.094728    1.910388   -1.108695
  199  H       1    0.97   0.00         0    0    0   0.092    9.410983   -5.819975    1.343792
  200  H       1    0.97   0.00         0    0    0   0.091    6.163172   -4.572236    4.376664
  201  C       3    2.81   0.00         2    0    1  -0.014   -3.359353    8.141479    6.588685
  202  C       3    2.81   0.00         2    0    1  -0.014   -3.282418    7.522790    9.168254
  203  C       3    2.81   0.00         2    0    1   0.039   -0.974314    7.431390   10.464294
  204  C       3    2.81   0.00         2    0    1  -0.014    1.247763    8.100052    9.128033
  205  C       3    2.81   0.00         2    0    1  -0.014    1.164247    8.756689    6.574423
  206  C       3    2.81   0.00         2    0    1   0.015   -1.127458    8.730172    5.263711
  207  C       3    2.81   0.00         2    0    1   0.015   -1.180714    9.237654    2.505131
  208  C       3    2.81   0.00         2    0    1  -0.014   -0.078584   11.434330    1.484013
  209  C       3    2.81   0.00         2    0    1  -0.014   -0.415711   12.042410   -1.077809
  210  C       3    2.83   0.00         2    0    1   0.039   -1.820347   10.443159   -2.660069
  211  C       3    2.81   0.00         2    0    1  -0.014   -2.717997    8.138370   -1.670656
  212  C       3    2.81   0.00         2    0    1  -0.014   -2.419411    7.552268    0.882054
  213  H       1    0.97   0.00         0    0    0   0.091   -5.162613    8.137427    5.618970
  214  H       1    0.97   0.00         0    0    0   0.092   -5.022582    7.062494   10.134518
  215  H       1    0.97   0.00         0    0    0   0.092    3.089379    8.027944   10.001411
  216  H       1    0.97   0.00         0    0    0   0.091    2.909105    9.190430    5.596025
  217  H       1    0.97   0.00         0    0    0   0.091    0.900653   12.756358    2.702208
  218  H       1    0.97   0.00         0    0    0   0.092    0.235885   13.853592   -1.767100
  219  H       1    0.97   0.00         0    0    0   0.092   -3.872204    6.907353   -2.823032
  220  H       1    0.97   0.00         0    0    0   0.091   -3.247477    5.827980    1.613099
  221  C       3    2.81   0.00         2    0    1  -0.014   -1.195371  -10.759188   -4.243679
  222  C       3    2.81   0.00         2    0    1  -0.014   -3.674057  -11.709034   -4.280373
  223  C       3    2.81   0.00         2    0    1   0.039   -5.323954  -11.096905   -6.262936
  224  C       3    2.81   0.00         2    0    1  -0.014   -4.388082   -9.570875   -8.255735
  225  C       3    2.81   0.00         2    0    1  -0.014   -1.913573   -8.657635   -8.233198
  226  C       3    2.81   0.00         2    0    1   0.015   -0.311659   -9.211256   -6.213814
  227  C       3    2.81   0.00         2    0    1   0.015    2.274656   -8.159853   -6.153564
  228  C       3    2.81   0.00         2    0    1  -0.014    4.169265   -9.162063   -7.715268
  229  C       3    2.81   0.00         2    0    1  -0.014    6.693726   -8.438821   -7.376697
  230  C       3    2.84   0.00         2    0    1   0.039    7.351774   -6.687775   -5.488171
  231  C       3    2.81   0.00         2    0    1  -0.014    5.410913   -5.483806   -4.136023
  232  C       3    2.81   0.00         2    0    1  -0.014    2.894019   -6.238156   -4.437852
  233  H       1    0.97   0.00         0    0    0   0.091    0.032452  -11.222636   -2.673522
  234  H       1    0.97   0.00         0    0    0   0.092   -4.308816  -12.892460   -2.741422
  235  H       1    0.97   0.00         0    0    0   0.092   -5.576673   -8.983463   -9.805413
  236  H       1    0.97   0.00         0    0    0   0.091   -1.268222   -7.459720   -9.762586
  237  H       1    0.97   0.00         0    0    0   0.091    3.718297  -10.629042   -9.071146
  238  H       1    0.97   0.00         0    0    0   0.092    8.162562   -9.420812   -8.410392
  239  H       1    0.97   0.00         0    0    0   0.092    5.857648   -4.128776   -2.683288
  240  H       1    0.97   0.00         0    0    0   0.091    1.446910   -5.411711   -3.249063
  241  C       3    2.81   0.00         2    0    1  -0.014   -6.392201   -1.406846   -4.119136
  242  C       3    2.81   0.00         2    0    1  -0.014   -7.802326   -3.453166   -3.274268
  243  C       3    2.83   0.00         2    0    1   0.039   -8.812940   -5.202288   -4.998964
  244  C       3    2.81   0.00         2    0    1  -0.014   -8.329382   -4.915540   -7.577913
  245  C       3    2.81   0.00         2    0    1  -0.014   -6.954039   -2.832318   -8.437584
  246  C       3    2.82   0.00         2    0    1   0.015   -6.039415   -1.029646   -6.711910
  247  C       3    2.82   0.00         2    0    1   0.015   -5.103965    1.431296   -7.596032
  248  C       3    2.81   0.00         2    0    1  -0.014   -2.906697    2.510734   -6.565483
  249  C       3    2.81   0.00         2    0    1  -0.014   -2.183546    4.953894   -7.256308
  250  C       3    2.83   0.00         2    0    1   0.039   -3.666963    6.342599   -8.946109
  251  C       3    2.81   0.00         2    0    1  -0.014   -5.876542    5.276278   -9.949177
  252  C       3    2.81   0.00         2    0    1  -0.014   -6.579832    2.832424   -9.292246
  253  H       1    0.97   0.00         0    0    0   0.091   -5.748747   -0.015358   -2.760926
  254  H       1    0.97   0.00         0    0    0   0.092   -8.234708   -3.589357   -1.282807
  255  H       1    0.97   0.00         0    0    0   0.092   -9.153748   -6.213009   -8.927747
  256  H       1    0.97   0.00         0    0    0   0.091   -6.709680   -2.557138  -10.451062
  257  H       1    0.97   0.00         0    0    0   0.091   -1.760490    1.463368   -5.233374
  258  H       1    0.97   0.00         0    0    0   0.092   -0.460623    5.757521   -6.496818
  259  H       1    0.97   0.00         0    0    0   0.092   -7.049722    6.342316  -11.243715
  260  H       1    0.97   0.00         0    0    0   0.091   -8.317140    2.061483  -10.051370
  261  C       3    2.81   0.00         2    0    1  -0.014    7.234378    1.437133   -8.202948
  262  C       3    2.81   0.00         2    0    1  -0.014    8.829887   -0.665924   -8.120255
  263  C       3    2.82   0.00         2    0    1   0.039   11.274242   -0.469134   -7.093387
  264  C       3    2.81   0.00         2    0    1  -0.014   12.066440    1.859169   -6.112329
  265  C       3    2.81   0.00         2    0    1  -0.014   10.466600    3.968328   -6.189269
  266  C       3    2.81   0.00         2    0    1   0.015    8.038982    3.784203   -7.254557
  267  C       3    2.81   0.00         2    0    1   0.015    6.370577    6.037652   -7.441165
  268  C       3    2.81   0.00         2    0    1  -0.014    6.107653    7.724994   -5.404900
  269  C       3    2.81   0.00         2    0    1  -0.014    4.520556    9.836767   -5.603422
  270  C       3    2.81   0.00         2    0    1   0.039    3.184270   10.311916   -7.855726
  271  C       3    2.81   0.00         2    0    1  -0.014    3.457449    8.630740   -9.878428
  272  C       3    2.81   0.00         2    0    1  -0.014    5.025706    6.517629   -9.679240
  273  H       1    0.97   0.00         0    0    0   0.091    5.359607    1.224076   -8.994565
  274  H       1    0.97   0.00         0    0    0   0.092    8.140617   -2.450665   -8.839946
  275  H       1    0.97   0.00         0    0    0   0.092   13.940959    2.053705   -5.319341
  276  H       1    0.97   0.00         0    0    0   0.091   11.145711    5.755299   -5.459800
  277  H       1    0.97   0.00         0    0    0   0.091    7.091082    7.381860   -3.643167
  278  H       1    0.97   0.00         0    0    0   0.092    4.303018   11.056782   -3.979638
  279  H       1    0.97   0.00         0    0    0   0.092    2.473555    8.965842  -11.633037
  280  H       1    0.97   0.00         0    0    0   0.091    5.212991    5.272750  -11.291837

          #atoms :   280
          #bonds :   318
          #angl  :   564
          #tors  :   912
          #nmol  :   1
          #optfrag :   1
           ------------------------------------------------- 
          |                   G F N - F F                   |
          |          A general generic force-field          |
          |                  Version 1.0.3                  | 
           ------------------------------------------------- 
          Number of HB bonds (bound hydrogen)     451326
          Number of HB bonds (unbound hydrogen)   31104
          Number of XB bonds                      0

 E+G (total)                   0 d,  0 h,  0 min,  0.134 sec
 distance/D3 list               ...        0 min,  0.000 sec (  0.200%)
 non bonded repulsion           ...        0 min,  0.002 sec (  1.605%)
 dCN                            ...        0 min,  0.001 sec (  1.067%)
 EEQ energy and q               ...        0 min,  0.002 sec (  1.299%)
 D3                             ...        0 min,  0.006 sec (  4.758%)
 EEQ gradient                   ...        0 min,  0.003 sec (  2.565%)
 bonds                          ...        0 min,  0.008 sec (  6.330%)
 bend and torsion               ...        0 min,  0.001 sec (  0.853%)
 bonded ATM                     ...        0 min,  0.001 sec (  1.044%)
 HB/XB (incl list setup)        ...        0 min,  0.107 sec ( 80.230%)

         :::::::::::::::::::::::::::::::::::::::::::::::::::::
         ::                     SUMMARY                     ::
         :::::::::::::::::::::::::::::::::::::::::::::::::::::
         :: total energy             -48.957371085157 Eh    ::
         :: gradient norm              0.301759235959 Eh/a0 ::
         ::.................................................::
         :: bond energy              -63.667612473649 Eh    ::
         :: angle energy               0.094067215953 Eh    ::
         :: torsion energy             0.132014610800 Eh    ::
         :: repulsion energy           3.576371360284 Eh    ::
         :: electrostat energy        11.389912541273 Eh    ::
         :: dispersion energy         -0.399631555074 Eh    ::
         :: HB energy                 -0.013434792890 Eh    ::
         :: XB energy                  0.000000000000 Eh    ::
         :: bonded atm energy         -0.069057991854 Eh    ::
         :: external energy            0.000000000000 Eh    ::
         :: add. restraining           0.000000000000 Eh    ::
         :: total charge               8.000000000000 e     ::
         :::::::::::::::::::::::::::::::::::::::::::::::::::::

      ----------------------------------------------------------- 
     |                   =====================                   |
     |                        A N C O P T                        |
     |                   =====================                   |
     |               Approximate Normal Coordinate               |
     |                Rational Function Optimizer                |
      ----------------------------------------------------------- 
      ----------------------------------------------------------- 
     |                   =====================                   |
     |                        A N C O P T                        |
     |                   =====================                   |
     |               Approximate Normal Coordinate               |
     |                Rational Function Optimizer                |
      ----------------------------------------------------------- 

          ...................................................
          :                      SETUP                      :
          :.................................................:
          :   optimization level            normal          :
          :   max. optcycles                   840          :
          :   ANC micro-cycles                  20          :
          :   degrees of freedom               834          :
          :.................................................:
          :   RF solver                   davidson          :
          :   write xtbopt.log                true          :
          :   linear?                        false          :
          :   energy convergence         0.5000000E-05 Eh   :
          :   grad. convergence          0.1000000E-02 Eh/α :
          :   maxmium RF displ.          1.0000000          :
          :   Hlow (freq-cutoff)         0.1000000E-01      :
          :   Hmax (freq-cutoff)         5.0000000          :
          :   S6 in model hess.         20.0000000          :
          ...................................................

generating ANC from exact Hessian ...
Using GFN-FF Lindh-Hessian
 Shifting diagonal of input Hessian by    9.9661117891086011E-003
 Lowest  eigenvalues of input Hessian
    0.000000    0.000000    0.000000    0.000000    0.000000    0.000000
    0.010000    0.010004    0.010008    0.010031    0.010044    0.010047
    0.010077    0.010087    0.010101    0.010114    0.010127    0.010133
 Highest eigenvalues
    2.761337    2.773641    2.775227    2.800857    2.813482    2.821461


........................................................................
.............................. CYCLE    1 ..............................
........................................................................
     iter. time                 ...        0 min,  0.163 sec
 * total energy  :   -48.9573711 Eh     change        0.0000000E+00 Eh
   gradient norm :     0.3017592 Eh/α   predicted     0.0000000E+00 (    NaN%)
   displ. norm   :     0.5216876 α      lambda       -0.9289470E-01
   maximum displ.:     0.1180883 α      in ANC's #78, #181, #174, ...

........................................................................
.............................. CYCLE    2 ..............................
........................................................................
     iter. time                 ...        0 min,  0.153 sec
 * total energy  :   -49.0344499 Eh     change       -0.7707878E-01 Eh
   gradient norm :     0.1789158 Eh/α   predicted    -0.5908836E-01 ( -23.34%)
   displ. norm   :     0.6436145 α      lambda       -0.7578764E-01
   maximum displ.:     0.1335318 α      in ANC's #78, #181, #174, ...

........................................................................
.............................. CYCLE    3 ..............................
........................................................................
     iter. time                 ...        0 min,  0.177 sec
 * total energy  :   -49.0880391 Eh     change       -0.5358919E-01 Eh
   gradient norm :     0.0612324 Eh/α   predicted    -0.5359701E-01 (   0.01%)
   displ. norm   :     0.6810128 α      lambda       -0.3191661E-01
   maximum displ.:     0.2048458 α      in ANC's #78, #90, #88, ...

........................................................................
.............................. CYCLE    4 ..............................
........................................................................
     iter. time                 ...        0 min,  0.152 sec
 * total energy  :   -49.1146014 Eh     change       -0.2656232E-01 Eh
   gradient norm :     0.0643526 Eh/α   predicted    -0.2339287E-01 ( -11.93%)
   displ. norm   :     0.7818215 α      lambda       -0.2690434E-01
   maximum displ.:     0.2447536 α      in ANC's #78, #90, #88, ...

........................................................................
.............................. CYCLE    5 ..............................
........................................................................
     iter. time                 ...        0 min,  0.182 sec
 * total energy  :   -49.1379087 Eh     change       -0.2330733E-01 Eh
   gradient norm :     0.0530994 Eh/α   predicted    -0.2167497E-01 (  -7.00%)
   displ. norm   :     0.8163127 α      lambda       -0.2203203E-01
   maximum displ.:     0.2602469 α      in ANC's #78, #90, #88, ...

........................................................................
.............................. CYCLE    6 ..............................
........................................................................
     iter. time                 ...        0 min,  0.189 sec
 * total energy  :   -49.1570591 Eh     change       -0.1915034E-01 Eh
   gradient norm :     0.0348485 Eh/α   predicted    -0.1835690E-01 (  -4.14%)
   displ. norm   :     0.8333752 α      lambda       -0.1751828E-01
   maximum displ.:     0.2688901 α      in ANC's #78, #90, #88, ...

........................................................................
.............................. CYCLE    7 ..............................
........................................................................
     iter. time                 ...        0 min,  0.172 sec
 * total energy  :   -49.1725830 Eh     change       -0.1552399E-01 Eh
   gradient norm :     0.0304441 Eh/α   predicted    -0.1484263E-01 (  -4.39%)
   displ. norm   :     0.8444606 α      lambda       -0.1476541E-01
   maximum displ.:     0.2770250 α      in ANC's #78, #90, #88, ...

........................................................................
.............................. CYCLE    8 ..............................
........................................................................
     iter. time                 ...        0 min,  0.173 sec
 * total energy  :   -49.1857956 Eh     change       -0.1321259E-01 Eh
   gradient norm :     0.0283456 Eh/α   predicted    -0.1264742E-01 (  -4.28%)
   displ. norm   :     0.8453735 α      lambda       -0.1256350E-01
   maximum displ.:     0.2812723 α      in ANC's #78, #90, #88, ...

........................................................................
.............................. CYCLE    9 ..............................
........................................................................
     iter. time                 ...        0 min,  0.162 sec
 * total energy  :   -49.1969456 Eh     change       -0.1114999E-01 Eh
   gradient norm :     0.0227392 Eh/α   predicted    -0.1077106E-01 (  -3.40%)
   displ. norm   :     0.8384929 α      lambda       -0.1016528E-01
   maximum displ.:     0.2787762 α      in ANC's #78, #90, #88, ...

........................................................................
.............................. CYCLE   10 ..............................
........................................................................
     iter. time                 ...        0 min,  0.164 sec
 * total energy  :   -49.2058362 Eh     change       -0.8890586E-02 Eh
   gradient norm :     0.0169093 Eh/α   predicted    -0.8656098E-02 (  -2.64%)
   displ. norm   :     0.8280818 α      lambda       -0.7830204E-02
   maximum displ.:     0.2688456 α      in ANC's #78, #44, #90, ...

........................................................................
.............................. CYCLE   11 ..............................
........................................................................
     iter. time                 ...        0 min,  0.157 sec
 * total energy  :   -49.2126393 Eh     change       -0.6803053E-02 Eh
   gradient norm :     0.0137956 Eh/α   predicted    -0.6599764E-02 (  -2.99%)
   displ. norm   :     0.8198956 α      lambda       -0.6035515E-02
   maximum displ.:     0.2499811 α      in ANC's #44, #78, #66, ...

........................................................................
.............................. CYCLE   12 ..............................
........................................................................
     iter. time                 ...        0 min,  0.137 sec
 * total energy  :   -49.2179026 Eh     change       -0.5263285E-02 Eh
   gradient norm :     0.0122138 Eh/α   predicted    -0.5046382E-02 (  -4.12%)
   displ. norm   :     0.8202139 α      lambda       -0.4859250E-02
   maximum displ.:     0.2722313 α      in ANC's #44, #78, #10, ...

........................................................................
.............................. CYCLE   13 ..............................
........................................................................
     iter. time                 ...        0 min,  0.150 sec
 * total energy  :   -49.2221847 Eh     change       -0.4282147E-02 Eh
   gradient norm :     0.0107852 Eh/α   predicted    -0.4064160E-02 (  -5.09%)
   displ. norm   :     0.8330381 α      lambda       -0.4196640E-02
   maximum displ.:     0.2877283 α      in ANC's #44, #10, #15, ...

........................................................................
.............................. CYCLE   14 ..............................
........................................................................
     iter. time                 ...        0 min,  0.163 sec
 * total energy  :   -49.2258386 Eh     change       -0.3653947E-02 Eh
   gradient norm :     0.0138957 Eh/α   predicted    -0.3554459E-02 (  -2.72%)
   displ. norm   :     0.8539690 α      lambda       -0.4096128E-02
   maximum displ.:     0.3077239 α      in ANC's #44, #10, #15, ...

........................................................................
.............................. CYCLE   15 ..............................
........................................................................
     iter. time                 ...        0 min,  0.169 sec
 * total energy  :   -49.2290867 Eh     change       -0.3248067E-02 Eh
   gradient norm :     0.0182079 Eh/α   predicted    -0.3541649E-02 (   9.04%)
   displ. norm   :     0.8062092 α      lambda       -0.3499316E-02
   maximum displ.:     0.2871611 α      in ANC's #44, #10, #15, ...

........................................................................
.............................. CYCLE   16 ..............................
........................................................................
     iter. time                 ...        0 min,  0.163 sec
 * total energy  :   -49.2322064 Eh     change       -0.3119722E-02 Eh
   gradient norm :     0.0117626 Eh/α   predicted    -0.2886891E-02 (  -7.46%)
   displ. norm   :     0.8441467 α      lambda       -0.3275880E-02
   maximum displ.:     0.2945225 α      in ANC's #44, #10, #15, ...

........................................................................
.............................. CYCLE   17 ..............................
........................................................................
     iter. time                 ...        0 min,  0.161 sec
 * total energy  :   -49.2351358 Eh     change       -0.2929320E-02 Eh
   gradient norm :     0.0127318 Eh/α   predicted    -0.2805120E-02 (  -4.24%)
   displ. norm   :     0.8676560 α      lambda       -0.3239050E-02
   maximum displ.:     0.3097867 α      in ANC's #10, #44, #15, ...

........................................................................
.............................. CYCLE   18 ..............................
........................................................................
     iter. time                 ...        0 min,  0.173 sec
 * total energy  :   -49.2378455 Eh     change       -0.2709745E-02 Eh
   gradient norm :     0.0163178 Eh/α   predicted    -0.2838751E-02 (   4.76%)
   displ. norm   :     0.8388855 α      lambda       -0.2852839E-02
   maximum displ.:     0.3181747 α      in ANC's #10, #44, #15, ...

........................................................................
.............................. CYCLE   19 ..............................
........................................................................
     iter. time                 ...        0 min,  0.169 sec
 * total energy  :   -49.2403510 Eh     change       -0.2505486E-02 Eh
   gradient norm :     0.0102174 Eh/α   predicted    -0.2430237E-02 (  -3.00%)
   displ. norm   :     0.8492395 α      lambda       -0.2477821E-02
   maximum displ.:     0.3413249 α      in ANC's #10, #15, #44, ...

........................................................................
.............................. CYCLE   20 ..............................
........................................................................
     iter. time                 ...        0 min,  0.170 sec
 * total energy  :   -49.2425285 Eh     change       -0.2177548E-02 Eh
   gradient norm :     0.0104832 Eh/α   predicted    -0.2132426E-02 (  -2.07%)
   displ. norm   :     0.8546790 α      lambda       -0.2421586E-02
   maximum displ.:     0.3622756 α      in ANC's #10, #15, #44, ...
 * RMSD in coord.:     0.7776598 α      energy gain  -0.2851574E+00 Eh

generating ANC from exact Hessian ...
Using GFN-FF Lindh-Hessian
 Shifting diagonal of input Hessian by    9.9216190151319317E-003
 Lowest  eigenvalues of input Hessian
    0.000000    0.000000    0.000000    0.000000    0.000000    0.000000
    0.010000    0.010009    0.010020    0.010045    0.010068    0.010079
    0.010115    0.010126    0.010150    0.010163    0.010172    0.010210
 Highest eigenvalues
    2.964776    2.966287    2.967989    2.969956    2.971523    2.973626


........................................................................
.............................. CYCLE   21 ..............................
........................................................................
     iter. time                 ...        0 min,  0.162 sec
 * total energy  :   -49.2446146 Eh     change       -0.2086078E-02 Eh
   gradient norm :     0.0114246 Eh/α   predicted     0.0000000E+00 (-100.00%)
   displ. norm   :     0.2250714 α      lambda       -0.7622908E-03
   maximum displ.:     0.1097155 α      in ANC's #11, #10, #15, ...

........................................................................
.............................. CYCLE   22 ..............................
........................................................................
     iter. time                 ...        0 min,  0.166 sec
 * total energy  :   -49.2453315 Eh     change       -0.7169288E-03 Eh
   gradient norm :     0.0068577 Eh/α   predicted    -0.4004653E-03 ( -44.14%)
   displ. norm   :     0.7398431 α      lambda       -0.2185394E-02
   maximum displ.:     0.3373969 α      in ANC's #11, #10, #15, ...

........................................................................
.............................. CYCLE   23 ..............................
........................................................................
     iter. time                 ...        0 min,  0.193 sec
 * total energy  :   -49.2472421 Eh     change       -0.1910589E-02 Eh
   gradient norm :     0.0084322 Eh/α   predicted    -0.1690804E-02 ( -11.50%)
   displ. norm   :     0.8232031 α      lambda       -0.1943502E-02
   maximum displ.:     0.3812814 α      in ANC's #11, #10, #15, ...

........................................................................
.............................. CYCLE   24 ..............................
........................................................................
     iter. time                 ...        0 min,  0.162 sec
 * total energy  :   -49.2490074 Eh     change       -0.1765315E-02 Eh
   gradient norm :     0.0132196 Eh/α   predicted    -0.1630272E-02 (  -7.65%)
   displ. norm   :     0.8429188 α      lambda       -0.1823409E-02
   maximum displ.:     0.3957863 α      in ANC's #11, #10, #15, ...

........................................................................
.............................. CYCLE   25 ..............................
........................................................................
     iter. time                 ...        0 min,  0.158 sec
 * total energy  :   -49.2507112 Eh     change       -0.1703803E-02 Eh
   gradient norm :     0.0133612 Eh/α   predicted    -0.1559482E-02 (  -8.47%)
   displ. norm   :     0.8506598 α      lambda       -0.1824054E-02
   maximum displ.:     0.4062803 α      in ANC's #11, #10, #15, ...

........................................................................
.............................. CYCLE   26 ..............................
........................................................................
     iter. time                 ...        0 min,  0.173 sec
 * total energy  :   -49.2524222 Eh     change       -0.1710930E-02 Eh
   gradient norm :     0.0106510 Eh/α   predicted    -0.1572029E-02 (  -8.12%)
   displ. norm   :     0.8579201 α      lambda       -0.1820207E-02
   maximum displ.:     0.4190878 α      in ANC's #11, #10, #15, ...

........................................................................
.............................. CYCLE   27 ..............................
........................................................................
     iter. time                 ...        0 min,  0.254 sec
 * total energy  :   -49.2541207 Eh     change       -0.1698542E-02 Eh
   gradient norm :     0.0095360 Eh/α   predicted    -0.1579965E-02 (  -6.98%)
   displ. norm   :     0.8672758 α      lambda       -0.1770149E-02
   maximum displ.:     0.4318200 α      in ANC's #11, #10, #15, ...

........................................................................
.............................. CYCLE   28 ..............................
........................................................................
     iter. time                 ...        0 min,  0.191 sec
 * total energy  :   -49.2557755 Eh     change       -0.1654801E-02 Eh
   gradient norm :     0.0102390 Eh/α   predicted    -0.1550805E-02 (  -6.28%)
   displ. norm   :     0.8731102 α      lambda       -0.1708563E-02
   maximum displ.:     0.4417300 α      in ANC's #11, #10, #5, ...

........................................................................
.............................. CYCLE   29 ..............................
........................................................................
     iter. time                 ...        0 min,  0.176 sec
 * total energy  :   -49.2573681 Eh     change       -0.1592566E-02 Eh
   gradient norm :     0.0093779 Eh/α   predicted    -0.1505532E-02 (  -5.47%)
   displ. norm   :     0.8787154 α      lambda       -0.1610066E-02
   maximum displ.:     0.4503858 α      in ANC's #11, #10, #5, ...

........................................................................
.............................. CYCLE   30 ..............................
........................................................................
     iter. time                 ...        0 min,  0.185 sec
 * total energy  :   -49.2588656 Eh     change       -0.1497484E-02 Eh
   gradient norm :     0.0077933 Eh/α   predicted    -0.1426632E-02 (  -4.73%)
   displ. norm   :     0.8834464 α      lambda       -0.1497266E-02
   maximum displ.:     0.4572348 α      in ANC's #11, #10, #5, ...

........................................................................
.............................. CYCLE   31 ..............................
........................................................................
     iter. time                 ...        0 min,  0.175 sec
 * total energy  :   -49.2602692 Eh     change       -0.1403587E-02 Eh
   gradient norm :     0.0074492 Eh/α   predicted    -0.1332925E-02 (  -5.03%)
   displ. norm   :     0.8858857 α      lambda       -0.1427095E-02
   maximum displ.:     0.4630845 α      in ANC's #11, #5, #10, ...

........................................................................
.............................. CYCLE   32 ..............................
........................................................................
     iter. time                 ...        0 min,  0.170 sec
 * total energy  :   -49.2616146 Eh     change       -0.1345458E-02 Eh
   gradient norm :     0.0072679 Eh/α   predicted    -0.1273540E-02 (  -5.35%)
   displ. norm   :     0.8910147 α      lambda       -0.1374461E-02
   maximum displ.:     0.4696134 α      in ANC's #11, #5, #10, ...

........................................................................
.............................. CYCLE   33 ..............................
........................................................................
     iter. time                 ...        0 min,  0.157 sec
 * total energy  :   -49.2629075 Eh     change       -0.1292915E-02 Eh
   gradient norm :     0.0060492 Eh/α   predicted    -0.1232833E-02 (  -4.65%)
   displ. norm   :     0.8979136 α      lambda       -0.1290223E-02
   maximum displ.:     0.4764991 α      in ANC's #11, #5, #10, ...

........................................................................
.............................. CYCLE   34 ..............................
........................................................................
     iter. time                 ...        0 min,  0.165 sec
 * total energy  :   -49.2641184 Eh     change       -0.1210868E-02 Eh
   gradient norm :     0.0048810 Eh/α   predicted    -0.1165233E-02 (  -3.77%)
   displ. norm   :     0.9017714 α      lambda       -0.1189650E-02
   maximum displ.:     0.4810943 α      in ANC's #11, #5, #10, ...

........................................................................
.............................. CYCLE   35 ..............................
........................................................................
     iter. time                 ...        0 min,  0.174 sec
 * total energy  :   -49.2652405 Eh     change       -0.1122121E-02 Eh
   gradient norm :     0.0050944 Eh/α   predicted    -0.1078532E-02 (  -3.88%)
   displ. norm   :     0.9017669 α      lambda       -0.1115794E-02
   maximum displ.:     0.4830998 α      in ANC's #11, #5, #10, ...

........................................................................
.............................. CYCLE   36 ..............................
........................................................................
     iter. time                 ...        0 min,  0.143 sec
 * total energy  :   -49.2662982 Eh     change       -0.1057678E-02 Eh
   gradient norm :     0.0054976 Eh/α   predicted    -0.1011572E-02 (  -4.36%)
   displ. norm   :     0.9039672 α      lambda       -0.1067735E-02
   maximum displ.:     0.4843463 α      in ANC's #11, #5, #10, ...

........................................................................
.............................. CYCLE   37 ..............................
........................................................................
     iter. time                 ...        0 min,  0.155 sec
 * total energy  :   -49.2673102 Eh     change       -0.1012047E-02 Eh
   gradient norm :     0.0051448 Eh/α   predicted    -0.9701245E-03 (  -4.14%)
   displ. norm   :     0.9035522 α      lambda       -0.1015929E-02
   maximum displ.:     0.4824272 α      in ANC's #11, #5, #10, ...

........................................................................
.............................. CYCLE   38 ..............................
........................................................................
     iter. time                 ...        0 min,  0.172 sec
 * total energy  :   -49.2682666 Eh     change       -0.9563525E-03 Eh
   gradient norm :     0.0039975 Eh/α   predicted    -0.9226777E-03 (  -3.52%)
   displ. norm   :     0.9047709 α      lambda       -0.9366317E-03
   maximum displ.:     0.4786103 α      in ANC's #11, #5, #10, ...

........................................................................
.............................. CYCLE   39 ..............................
........................................................................
     iter. time                 ...        0 min,  0.169 sec
 * total energy  :   -49.2691445 Eh     change       -0.8779092E-03 Eh
   gradient norm :     0.0032212 Eh/α   predicted    -0.8516907E-03 (  -2.99%)
   displ. norm   :     0.8997339 α      lambda       -0.8522995E-03
   maximum displ.:     0.4721601 α      in ANC's #11, #5, #9, ...

........................................................................
.............................. CYCLE   40 ..............................
........................................................................
     iter. time                 ...        0 min,  0.170 sec
 * total energy  :   -49.2699359 Eh     change       -0.7914166E-03 Eh
   gradient norm :     0.0038393 Eh/α   predicted    -0.7711274E-03 (  -2.56%)
   displ. norm   :     0.9050768 α      lambda       -0.7769865E-03
   maximum displ.:     0.4715633 α      in ANC's #11, #5, #9, ...

........................................................................
.............................. CYCLE   41 ..............................
........................................................................
     iter. time                 ...        0 min,  0.149 sec
 * total energy  :   -49.2706384 Eh     change       -0.7025045E-03 Eh
   gradient norm :     0.0042478 Eh/α   predicted    -0.7067344E-03 (   0.60%)
   displ. norm   :     0.8702275 α      lambda       -0.7128125E-03
   maximum displ.:     0.4472903 α      in ANC's #11, #5, #9, ...

........................................................................
.............................. CYCLE   42 ..............................
........................................................................
     iter. time                 ...        0 min,  0.170 sec
 * total energy  :   -49.2712817 Eh     change       -0.6433031E-03 Eh
   gradient norm :     0.0038135 Eh/α   predicted    -0.6263159E-03 (  -2.64%)
   displ. norm   :     0.8857229 α      lambda       -0.6185065E-03
   maximum displ.:     0.4530156 α      in ANC's #11, #5, #9, ...
 * RMSD in coord.:     1.0688668 α      energy gain  -0.2875320E-01 Eh

generating ANC from exact Hessian ...
Using GFN-FF Lindh-Hessian
 Shifting diagonal of input Hessian by    9.9042436546503514E-003
 Lowest  eigenvalues of input Hessian
    0.000000    0.000000    0.000000    0.000000    0.000000    0.000000
    0.010000    0.010005    0.010008    0.010050    0.010070    0.010084
    0.010124    0.010127    0.010158    0.010171    0.010177    0.010194
 Highest eigenvalues
    2.973205    2.975435    2.976199    2.977748    2.978460    2.979174


........................................................................
.............................. CYCLE   43 ..............................
........................................................................
     iter. time                 ...        0 min,  0.165 sec
 * total energy  :   -49.2718503 Eh     change       -0.5685712E-03 Eh
   gradient norm :     0.0033502 Eh/α   predicted     0.0000000E+00 (-100.00%)
   displ. norm   :     0.0666732 α      lambda       -0.3428943E-04
   maximum displ.:     0.0455178 α      in ANC's #5, #10, #1, ...

........................................................................
.............................. CYCLE   44 ..............................
........................................................................
     iter. time                 ...        0 min,  0.174 sec
 * total energy  :   -49.2719099 Eh     change       -0.5964195E-04 Eh
   gradient norm :     0.0021366 Eh/α   predicted    -0.3185420E-04 ( -46.59%)
   displ. norm   :     0.2838405 α      lambda       -0.2326653E-03
   maximum displ.:     0.1689278 α      in ANC's #5, #10, #1, ...

........................................................................
.............................. CYCLE   45 ..............................
........................................................................
     iter. time                 ...        0 min,  0.164 sec
 * total energy  :   -49.2721050 Eh     change       -0.1950224E-03 Eh
   gradient norm :     0.0030040 Eh/α   predicted    -0.1257100E-03 ( -35.54%)
   displ. norm   :     0.4484697 α      lambda       -0.2720591E-03
   maximum displ.:     0.2620465 α      in ANC's #5, #10, #1, ...

........................................................................
.............................. CYCLE   46 ..............................
........................................................................
     iter. time                 ...        0 min,  0.158 sec
 * total energy  :   -49.2723316 Eh     change       -0.2266809E-03 Eh
   gradient norm :     0.0061736 Eh/α   predicted    -0.1633890E-03 ( -27.92%)
   displ. norm   :     0.5024204 α      lambda       -0.2561381E-03
   maximum displ.:     0.2906241 α      in ANC's #5, #10, #1, ...

........................................................................
.............................. CYCLE   47 ..............................
........................................................................
     iter. time                 ...        0 min,  0.237 sec
 * total energy  :   -49.2725586 Eh     change       -0.2269720E-03 Eh
   gradient norm :     0.0072014 Eh/α   predicted    -0.1603975E-03 ( -29.33%)
   displ. norm   :     0.5587928 α      lambda       -0.2902282E-03
   maximum displ.:     0.3202569 α      in ANC's #5, #10, #1, ...

........................................................................
.............................. CYCLE   48 ..............................
........................................................................
     iter. time                 ...        0 min,  0.137 sec
 * total energy  :   -49.2728224 Eh     change       -0.2638047E-03 Eh
   gradient norm :     0.0064805 Eh/α   predicted    -0.1904261E-03 ( -27.82%)
   displ. norm   :     0.6231369 α      lambda       -0.3418956E-03
   maximum displ.:     0.3568498 α      in ANC's #5, #10, #1, ...

........................................................................
.............................. CYCLE   49 ..............................
........................................................................
     iter. time                 ...        0 min,  0.172 sec
 * total energy  :   -49.2731264 Eh     change       -0.3039519E-03 Eh
   gradient norm :     0.0055809 Eh/α   predicted    -0.2373281E-03 ( -21.92%)
   displ. norm   :     0.6490238 α      lambda       -0.3577649E-03
   maximum displ.:     0.3745127 α      in ANC's #5, #10, #1, ...

........................................................................
.............................. CYCLE   50 ..............................
........................................................................
     iter. time                 ...        0 min,  0.151 sec
 * total energy  :   -49.2734349 Eh     change       -0.3084836E-03 Eh
   gradient norm :     0.0062859 Eh/α   predicted    -0.2542408E-03 ( -17.58%)
   displ. norm   :     0.6377216 α      lambda       -0.3439756E-03
   maximum displ.:     0.3725579 α      in ANC's #5, #10, #1, ...

........................................................................
.............................. CYCLE   51 ..............................
........................................................................
     iter. time                 ...        0 min,  0.168 sec
 * total energy  :   -49.2737275 Eh     change       -0.2926822E-03 Eh
   gradient norm :     0.0073678 Eh/α   predicted    -0.2419336E-03 ( -17.34%)
   displ. norm   :     0.6248836 α      lambda       -0.3313423E-03
   maximum displ.:     0.3695517 α      in ANC's #5, #10, #1, ...

........................................................................
.............................. CYCLE   52 ..............................
........................................................................
     iter. time                 ...        0 min,  0.177 sec
 * total energy  :   -49.2740074 Eh     change       -0.2798537E-03 Eh
   gradient norm :     0.0073535 Eh/α   predicted    -0.2303623E-03 ( -17.68%)
   displ. norm   :     0.6353598 α      lambda       -0.3208236E-03
   maximum displ.:     0.3791749 α      in ANC's #5, #10, #1, ...

........................................................................
.............................. CYCLE   53 ..............................
........................................................................
     iter. time                 ...        0 min,  0.174 sec
 * total energy  :   -49.2742798 Eh     change       -0.2724533E-03 Eh
   gradient norm :     0.0064263 Eh/α   predicted    -0.2251675E-03 ( -17.36%)
   displ. norm   :     0.6597857 α      lambda       -0.3117756E-03
   maximum displ.:     0.3964770 α      in ANC's #5, #10, #1, ...

........................................................................
.............................. CYCLE   54 ..............................
........................................................................
     iter. time                 ...        0 min,  0.141 sec
 * total energy  :   -49.2745481 Eh     change       -0.2682090E-03 Eh
   gradient norm :     0.0055678 Eh/α   predicted    -0.2237503E-03 ( -16.58%)
   displ. norm   :     0.6745175 α      lambda       -0.3009935E-03
   maximum displ.:     0.4082024 α      in ANC's #5, #10, #1, ...

........................................................................
.............................. CYCLE   55 ..............................
........................................................................
     iter. time                 ...        0 min,  0.141 sec
 * total energy  :   -49.2748070 Eh     change       -0.2589858E-03 Eh
   gradient norm :     0.0051626 Eh/α   predicted    -0.2189735E-03 ( -15.45%)
   displ. norm   :     0.6840390 α      lambda       -0.2809190E-03
   maximum displ.:     0.4163825 α      in ANC's #5, #10, #1, ...

........................................................................
.............................. CYCLE   56 ..............................
........................................................................
     iter. time                 ...        0 min,  0.164 sec
 * total energy  :   -49.2750493 Eh     change       -0.2422324E-03 Eh
   gradient norm :     0.0048797 Eh/α   predicted    -0.2061933E-03 ( -14.88%)
   displ. norm   :     0.6830470 α      lambda       -0.2625460E-03
   maximum displ.:     0.4178061 α      in ANC's #5, #10, #1, ...

........................................................................
.............................. CYCLE   57 ..............................
........................................................................
     iter. time                 ...        0 min,  0.157 sec
 * total energy  :   -49.2752759 Eh     change       -0.2266282E-03 Eh
   gradient norm :     0.0049285 Eh/α   predicted    -0.1925215E-03 ( -15.05%)
   displ. norm   :     0.6920527 α      lambda       -0.2544180E-03
   maximum displ.:     0.4234939 α      in ANC's #5, #1, #10, ...

........................................................................
.............................. CYCLE   58 ..............................
........................................................................
     iter. time                 ...        0 min,  0.155 sec
 * total energy  :   -49.2754985 Eh     change       -0.2225646E-03 Eh
   gradient norm :     0.0056180 Eh/α   predicted    -0.1881354E-03 ( -15.47%)
   displ. norm   :     0.6871490 α      lambda       -0.2727219E-03
   maximum displ.:     0.4156460 α      in ANC's #5, #1, #10, ...

........................................................................
.............................. CYCLE   59 ..............................
........................................................................
     iter. time                 ...        0 min,  0.157 sec
 * total energy  :   -49.2757348 Eh     change       -0.2363110E-03 Eh
   gradient norm :     0.0064471 Eh/α   predicted    -0.2007658E-03 ( -15.04%)
   displ. norm   :     0.7296699 α      lambda       -0.2968511E-03
   maximum displ.:     0.4357266 α      in ANC's #5, #1, #59, ...

........................................................................
.............................. CYCLE   60 ..............................
........................................................................
     iter. time                 ...        0 min,  0.184 sec
 * total energy  :   -49.2759921 Eh     change       -0.2573503E-03 Eh
   gradient norm :     0.0072112 Eh/α   predicted    -0.2274556E-03 ( -11.62%)
   displ. norm   :     0.6665091 α      lambda       -0.4101665E-03
   maximum displ.:     0.3195126 α      in ANC's #5, #59, #1, ...

........................................................................
.............................. CYCLE   61 ..............................
........................................................................
     iter. time                 ...        0 min,  0.162 sec
 * total energy  :   -49.2762546 Eh     change       -0.2624776E-03 Eh
   gradient norm :     0.0081123 Eh/α   predicted    -0.2961948E-03 (  12.85%)
   displ. norm   :     0.6962151 α      lambda       -0.3409809E-03
   maximum displ.:     0.3997937 α      in ANC's #5, #59, #1, ...

........................................................................
.............................. CYCLE   62 ..............................
........................................................................
     iter. time                 ...        0 min,  0.146 sec
 * total energy  :   -49.2765342 Eh     change       -0.2795872E-03 Eh
   gradient norm :     0.0083173 Eh/α   predicted    -0.2531316E-03 (  -9.46%)
   displ. norm   :     0.5295460 α      lambda       -0.3878755E-03
   maximum displ.:     0.2560419 α      in ANC's #5, #59, #1, ...

........................................................................
.............................. CYCLE   63 ..............................
........................................................................
     iter. time                 ...        0 min,  0.175 sec
 * total energy  :   -49.2768387 Eh     change       -0.3044887E-03 Eh
   gradient norm :     0.0081532 Eh/α   predicted    -0.2483258E-03 ( -18.45%)
   displ. norm   :     0.5575792 α      lambda       -0.3969133E-03
   maximum displ.:     0.2492117 α      in ANC's #59, #5, #17, ...

........................................................................
.............................. CYCLE   64 ..............................
........................................................................
     iter. time                 ...        0 min,  0.176 sec
 * total energy  :   -49.2771665 Eh     change       -0.3278110E-03 Eh
   gradient norm :     0.0093651 Eh/α   predicted    -0.2601577E-03 ( -20.64%)
   displ. norm   :     0.5713995 α      lambda       -0.4540113E-03
   maximum displ.:     0.2762913 α      in ANC's #59, #5, #17, ...

........................................................................
.............................. CYCLE   65 ..............................
........................................................................
     iter. time                 ...        0 min,  0.183 sec
 * total energy  :   -49.2775308 Eh     change       -0.3643154E-03 Eh
   gradient norm :     0.0099241 Eh/α   predicted    -0.3011243E-03 ( -17.35%)
   displ. norm   :     0.6766457 α      lambda       -0.4686060E-03
   maximum displ.:     0.3069708 α      in ANC's #59, #5, #17, ...

........................................................................
.............................. CYCLE   66 ..............................
........................................................................
     iter. time                 ...        0 min,  0.180 sec
 * total energy  :   -49.2779231 Eh     change       -0.3923341E-03 Eh
   gradient norm :     0.0087386 Eh/α   predicted    -0.3415858E-03 ( -12.93%)
   displ. norm   :     0.5437744 α      lambda       -0.7360781E-03
   maximum displ.:     0.2212972 α      in ANC's #59, #10, #26, ...
 * RMSD in coord.:     0.7366835 α      energy gain  -0.6641413E-02 Eh

generating ANC from exact Hessian ...
Using GFN-FF Lindh-Hessian
 Shifting diagonal of input Hessian by    9.8996805907660360E-003
 Lowest  eigenvalues of input Hessian
    0.000000    0.000000    0.000000    0.000000    0.000000    0.000000
    0.010000    0.010003    0.010005    0.010055    0.010073    0.010084
    0.010117    0.010135    0.010160    0.010165    0.010187    0.010200
 Highest eigenvalues
    2.975324    2.976306    2.978536    2.980609    2.982340    2.986632


........................................................................
.............................. CYCLE   67 ..............................
........................................................................
     iter. time                 ...        0 min,  0.152 sec
 * total energy  :   -49.2780983 Eh     change       -0.1752073E-03 Eh
   gradient norm :     0.0149772 Eh/α   predicted     0.0000000E+00 (-100.00%)
   displ. norm   :     0.0770974 α      lambda       -0.3543332E-03
   maximum displ.:     0.0268109 α      in ANC's #61, #47, #63, ...

........................................................................
.............................. CYCLE   68 ..............................
........................................................................
     iter. time                 ...        0 min,  0.134 sec
 * total energy  :   -49.2783733 Eh     change       -0.2749243E-03 Eh
   gradient norm :     0.0080852 Eh/α   predicted    -0.1782256E-03 ( -35.17%)
   displ. norm   :     0.1669932 α      lambda       -0.3398416E-03
   maximum displ.:     0.0643984 α      in ANC's #61, #47, #63, ...

........................................................................
.............................. CYCLE   69 ..............................
........................................................................
     iter. time                 ...        0 min,  0.157 sec
 * total energy  :   -49.2785863 Eh     change       -0.2129959E-03 Eh
   gradient norm :     0.0042721 Eh/α   predicted    -0.1746602E-03 ( -18.00%)
   displ. norm   :     0.1378450 α      lambda       -0.1163874E-03
[...]
    55   6 C       56   6 C                                       1.3888510
    56   6 C       57   6 C                                       1.3699788
    41  26 Fe      58   7 N                                       1.9520645
    57   6 C       58   7 N                                       1.3428408
    58   7 N       59   6 C                                       1.3646679
    55   6 C       60   6 C                                       1.3695755
    59   6 C       60   6 C                                       1.4038262
    59   6 C       61   6 C                                       1.4144207
    61   6 C       62   7 N                                       1.3287711
    55   6 C       63   1 H                                       1.0807383
    56   6 C       64   1 H                                       1.0799986
    57   6 C       65   1 H                                       1.0748455
    60   6 C       66   1 H                                       1.0770394
    61   6 C       67   1 H                                       1.0770214
    68   6 C       69   6 C                                       1.3890708
    69   6 C       70   6 C                                       1.3702886
    41  26 Fe      71   7 N                                       1.9389388
    70   6 C       71   7 N                                       1.3428840
    71   7 N       72   6 C                                       1.3643265
    68   6 C       73   6 C                                       1.3696075
    72   6 C       73   6 C                                       1.4041193
    72   6 C       74   6 C                                       1.4147561
    74   6 C       75   7 N                                       1.3304782
    68   6 C       76   1 H                                       1.0808189
    69   6 C       77   1 H                                       1.0800290
    70   6 C       78   1 H                                       1.0753109
    73   6 C       79   1 H                                       1.0771083
    74   6 C       80   1 H                                       1.0766936
    82   6 C       83   6 C                                       1.3893022
    83   6 C       84   6 C                                       1.3702529
    81  26 Fe      85   7 N                                       1.9441223
    84   6 C       85   7 N                                       1.3426630
    85   7 N       86   6 C                                       1.3664840
    82   6 C       87   6 C                                       1.3697531
    86   6 C       87   6 C                                       1.4036533
    86   6 C       88   6 C                                       1.4155249
    81  26 Fe      89   7 N                                       1.9574796 (max)
    88   6 C       89   7 N                                       1.3298121
    82   6 C       90   1 H                                       1.0808624
    83   6 C       91   1 H                                       1.0800899
    84   6 C       92   1 H                                       1.0752690
    87   6 C       93   1 H                                       1.0771306
    88   6 C       94   1 H                                       1.0772186
    95   6 C       96   6 C                                       1.3891357
    96   6 C       97   6 C                                       1.3701190
    81  26 Fe      98   7 N                                       1.9458165
    97   6 C       98   7 N                                       1.3426814
    98   7 N       99   6 C                                       1.3657026
    95   6 C      100   6 C                                       1.3697399
    99   6 C      100   6 C                                       1.4037591
    99   6 C      101   6 C                                       1.4150692
   101   6 C      102   7 N                                       1.3290583
    95   6 C      103   1 H                                       1.0808393
    96   6 C      104   1 H                                       1.0800690
    97   6 C      105   1 H                                       1.0750668
   100   6 C      106   1 H                                       1.0770939
   101   6 C      107   1 H                                       1.0771755
   108   6 C      109   6 C                                       1.3892997
   109   6 C      110   6 C                                       1.3702582
    81  26 Fe     111   7 N                                       1.9412538
   110   6 C      111   7 N                                       1.3425649
   111   7 N      112   6 C                                       1.3658136
   108   6 C      113   6 C                                       1.3698066
   112   6 C      113   6 C                                       1.4036940
   112   6 C      114   6 C                                       1.4151856
   114   6 C      115   7 N                                       1.3295274
   108   6 C      116   1 H                                       1.0808951
   109   6 C      117   1 H                                       1.0801179
   110   6 C      118   1 H                                       1.0752330
   113   6 C      119   1 H                                       1.0771267
   114   6 C      120   1 H                                       1.0771825
   122   6 C      123   6 C                                       1.3887688
   123   6 C      124   6 C                                       1.3700114
   121  26 Fe     125   7 N                                       1.9540224
   124   6 C      125   7 N                                       1.3429178
   125   7 N      126   6 C                                       1.3644587
   122   6 C      127   6 C                                       1.3695312
   126   6 C      127   6 C                                       1.4039154
   126   6 C      128   6 C                                       1.4139718
   128   6 C      129   7 N                                       1.3285322
   122   6 C      130   1 H                                       1.0808403
   123   6 C      131   1 H                                       1.0800419
   124   6 C      132   1 H                                       1.0747600
   127   6 C      133   1 H                                       1.0771529
   128   6 C      134   1 H                                       1.0769749
   135   6 C      136   6 C                                       1.3890418
   136   6 C      137   6 C                                       1.3703256
   121  26 Fe     138   7 N                                       1.9398394
   137   6 C      138   7 N                                       1.3429355
   138   7 N      139   6 C                                       1.3643765
   135   6 C      140   6 C                                       1.3695874
   139   6 C      140   6 C                                       1.4041844
   139   6 C      141   6 C                                       1.4147697
   141   6 C      142   7 N                                       1.3305245
   135   6 C      143   1 H                                       1.0809042
   136   6 C      144   1 H                                       1.0800955
   137   6 C      145   1 H                                       1.0753078
   140   6 C      146   1 H                                       1.0771543
   141   6 C      147   1 H                                       1.0766544
   148   6 C      149   6 C                                       1.3886433
   149   6 C      150   6 C                                       1.3701926
   121  26 Fe     151   7 N                                       1.9562867
   150   6 C      151   7 N                                       1.3433099
   151   7 N      152   6 C                                       1.3663600
   148   6 C      153   6 C                                       1.3692929
   152   6 C      153   6 C                                       1.4037811
   152   6 C      154   6 C                                       1.4141503
   154   6 C      155   7 N                                       1.3284219
   148   6 C      156   1 H                                       1.0809470
   149   6 C      157   1 H                                       1.0800907
   150   6 C      158   1 H                                       1.0747399
   153   6 C      159   1 H                                       1.0772304
   154   6 C      160   1 H                                       1.0767262
   161   6 C      162   6 C                                       1.3737973
     9   7 N      163   6 C                                       1.4192635
   162   6 C      163   6 C                                       1.3958218
   163   6 C      164   6 C                                       1.3928845
   164   6 C      165   6 C                                       1.3717198
   161   6 C      166   6 C                                       1.3989321
   165   6 C      166   6 C                                       1.3985362
   167   6 C      168   6 C                                       1.3989108
   168   6 C      169   6 C                                       1.3735059
    49   7 N      170   6 C                                       1.4207018
   169   6 C      170   6 C                                       1.3956053
   170   6 C      171   6 C                                       1.3933591
   167   6 C      172   6 C                                       1.3988387
   171   6 C      172   6 C                                       1.3720344
   161   6 C      173   1 H                                       1.0761572
   162   6 C      174   1 H                                       1.0760927
   164   6 C      175   1 H                                       1.0732540
   165   6 C      176   1 H                                       1.0754945
   168   6 C      177   1 H                                       1.0761756
   169   6 C      178   1 H                                       1.0762166
   171   6 C      179   1 H                                       1.0748993
   172   6 C      180   1 H                                       1.0754754
   181   6 C      182   6 C                                       1.3743065
    22   7 N      183   6 C                                       1.4202635
   182   6 C      183   6 C                                       1.3982683
   183   6 C      184   6 C                                       1.3912568
   184   6 C      185   6 C                                       1.3707487
   181   6 C      186   6 C                                       1.3977167
   185   6 C      186   6 C                                       1.3975925
   187   6 C      188   6 C                                       1.3991748
   188   6 C      189   6 C                                       1.3716575
   189   6 C      190   6 C                                       1.3945598
   190   6 C      191   6 C                                       1.3951205
   187   6 C      192   6 C                                       1.3998186
   191   6 C      192   6 C                                       1.3731998
   181   6 C      193   1 H                                       1.0761055
   182   6 C      194   1 H                                       1.0749072
   184   6 C      195   1 H                                       1.0690384 (min)
   185   6 C      196   1 H                                       1.0755994
   188   6 C      197   1 H                                       1.0755801
   189   6 C      198   1 H                                       1.0746603
   191   6 C      199   1 H                                       1.0758185
   192   6 C      200   1 H                                       1.0761198
   201   6 C      202   6 C                                       1.3721033
    35   7 N      203   6 C                                       1.4204828
   202   6 C      203   6 C                                       1.3913002
   203   6 C      204   6 C                                       1.3969985
   204   6 C      205   6 C                                       1.3727330
   201   6 C      206   6 C                                       1.3992557
   205   6 C      206   6 C                                       1.3977727
   207   6 C      208   6 C                                       1.4001866
   208   6 C      209   6 C                                       1.3728631
   129   7 N      210   6 C                                       1.4212914
   209   6 C      210   6 C                                       1.3923318
   210   6 C      211   6 C                                       1.3953434
   207   6 C      212   6 C                                       1.3984046
   211   6 C      212   6 C                                       1.3722136
   201   6 C      213   1 H                                       1.0752533
   202   6 C      214   1 H                                       1.0704955
   204   6 C      215   1 H                                       1.0750898
   205   6 C      216   1 H                                       1.0752568
   208   6 C      217   1 H                                       1.0754382
   209   6 C      218   1 H                                       1.0731601
   211   6 C      219   1 H                                       1.0756976
   212   6 C      220   1 H                                       1.0750147
   221   6 C      222   6 C                                       1.3720704
    75   7 N      223   6 C                                       1.4196355
   222   6 C      223   6 C                                       1.3923627
   223   6 C      224   6 C                                       1.3971260
   224   6 C      225   6 C                                       1.3731104
   221   6 C      226   6 C                                       1.3984739
   225   6 C      226   6 C                                       1.3972484
   227   6 C      228   6 C                                       1.3996700
   228   6 C      229   6 C                                       1.3728729
   102   7 N      230   6 C                                       1.4244991
   229   6 C      230   6 C                                       1.3943095
   230   6 C      231   6 C                                       1.3947924
   227   6 C      232   6 C                                       1.3985078
   231   6 C      232   6 C                                       1.3722081
   221   6 C      233   1 H                                       1.0758338
   222   6 C      234   1 H                                       1.0709801
   224   6 C      235   1 H                                       1.0751623
   225   6 C      236   1 H                                       1.0759018
   228   6 C      237   1 H                                       1.0761683
   229   6 C      238   1 H                                       1.0748771
   231   6 C      239   1 H                                       1.0754614
   232   6 C      240   1 H                                       1.0756030
   241   6 C      242   6 C                                       1.3719565
    62   7 N      243   6 C                                       1.4222580
   242   6 C      243   6 C                                       1.3955559
   243   6 C      244   6 C                                       1.3936951
   244   6 C      245   6 C                                       1.3730751
   241   6 C      246   6 C                                       1.3976997
   245   6 C      246   6 C                                       1.3991985
   247   6 C      248   6 C                                       1.3982665
   248   6 C      249   6 C                                       1.3716624
   155   7 N      250   6 C                                       1.4193291
   249   6 C      250   6 C                                       1.3929034
   250   6 C      251   6 C                                       1.3960029
   247   6 C      252   6 C                                       1.3986960
   251   6 C      252   6 C                                       1.3737811
   241   6 C      253   1 H                                       1.0757575
   242   6 C      254   1 H                                       1.0756151
   244   6 C      255   1 H                                       1.0735640
   245   6 C      256   1 H                                       1.0759317
   248   6 C      257   1 H                                       1.0755830
   249   6 C      258   1 H                                       1.0746255
   251   6 C      259   1 H                                       1.0761211
   252   6 C      260   1 H                                       1.0764100
   261   6 C      262   6 C                                       1.3717695
   262   6 C      263   6 C                                       1.3947847
   263   6 C      264   6 C                                       1.3944209
   264   6 C      265   6 C                                       1.3731618
   261   6 C      266   6 C                                       1.3983413
   265   6 C      266   6 C                                       1.3997790
   267   6 C      268   6 C                                       1.3973402
   268   6 C      269   6 C                                       1.3736184
   142   7 N      270   6 C                                       1.4201531
   269   6 C      270   6 C                                       1.3974537
   270   6 C      271   6 C                                       1.3920611
   267   6 C      272   6 C                                       1.3982129
   271   6 C      272   6 C                                       1.3716138
   261   6 C      273   1 H                                       1.0756271
   262   6 C      274   1 H                                       1.0750258
   264   6 C      275   1 H                                       1.0750197
   265   6 C      276   1 H                                       1.0761355
   268   6 C      277   1 H                                       1.0759059
   269   6 C      278   1 H                                       1.0751156
   271   6 C      279   1 H                                       1.0704967
   272   6 C      280   1 H                                       1.0758069

 * 4 distinct bonds (by element types)

   Z      Z             #   av. dist./Å        max./Å        min./Å
   1 H    6 C         108     1.0766491     1.0809512     1.0690384
   6 C    6 C         132     1.3889683     1.4155249     1.3692929
   6 C    7 N          46     1.3621159     1.4244991     1.3284219
   7 N   26 Fe         13     1.9481754     1.9574796     1.9339807


optimized geometry written to: xtbopt.xyz


           -------------------------------------------------
          | TOTAL ENERGY              -49.280739101717 Eh   |
          | GRADIENT NORM               0.000659581388 Eh/α |
           -------------------------------------------------
########################################################################
[WARNING] Runtime exception occurred
-1- gfnff_setup: Could not read topology file.
########################################################################

------------------------------------------------------------------------
 * finished run on 2024/12/18 at 20:50:53.307     
------------------------------------------------------------------------
 total:
 * wall-time:     0 d,  0 h,  0 min, 23.416 sec
 *  cpu-time:     0 d,  0 h,  4 min, 16.447 sec
 * ratio c/w:    10.952 speedup
 SCF:
 * wall-time:     0 d,  0 h,  0 min,  0.136 sec
 *  cpu-time:     0 d,  0 h,  0 min,  0.211 sec
 * ratio c/w:     1.554 speedup
 ANC optimizer:
 * wall-time:     0 d,  0 h,  0 min, 23.157 sec
 *  cpu-time:     0 d,  0 h,  4 min, 14.615 sec
 * ratio c/w:    10.995 speedup

