280
 energy: -48.957371085157 gnorm: 0.301759235959 xtb: 6.7.1 (edcfbbe)
Fe          -0.84888900000000        1.59004200000000        7.87428800000000
C           -4.15736200000000        4.54324100000000        9.49212600000000
C           -3.06348200000000        4.57352700000000       10.35313300000000
C           -2.02117100000000        3.66718800000000       10.16659600000000
N           -2.06279100000000        2.77031900000000        9.14153400000000
C           -3.13509900000000        2.71605200000000        8.27519500000000
C           -4.20404200000000        3.60542100000000        8.46096500000000
C           -3.28962700000000        1.65853500000000        7.22389100000000
N           -2.33374300000000        1.26869400000000        6.41212900000000
H           -4.97728300000000        5.23521900000000        9.63310000000000
H           -3.02653500000000        5.28853400000000       11.16494900000000
H           -1.18329700000000        3.67250500000000       10.84823900000000
H           -5.07029300000000        3.57211600000000        7.81145600000000
H           -4.29172600000000        1.26532800000000        7.08155500000000
C           -0.86759700000000       -2.32323400000000       10.40609600000000
C           -1.91502100000000       -1.49134900000000       10.79963900000000
C           -2.22532600000000       -0.37492500000000       10.02451600000000
N           -1.50538700000000       -0.10298400000000        8.90356100000000
C           -0.45959800000000       -0.88913000000000        8.49540300000000
C           -0.14127700000000       -2.03016000000000        9.25003500000000
C            0.28914300000000       -0.65068300000000        7.22182800000000
N            0.41130400000000        0.49813900000000        6.58402000000000
H           -0.62046200000000       -3.19750500000000       10.99399700000000
H           -2.48410700000000       -1.71275100000000       11.69272000000000
H           -3.04044400000000        0.27559100000000       10.31191400000000
H            0.66395500000000       -2.68839700000000        8.94748000000000
H            0.75248000000000       -1.53735300000000        6.79888400000000
C            1.94339500000000        3.41159400000000       11.19466600000000
C            1.59987700000000        2.10558200000000       11.53602200000000
C            0.90213300000000        1.32209400000000       10.61910300000000
N            0.55371700000000        1.83181900000000        9.40610900000000
C            0.86198300000000        3.12749200000000        9.04268900000000
C            1.58507900000000        3.92280100000000        9.94756100000000
C            0.54769700000000        3.72970700000000        7.69406200000000
N           -0.46075400000000        3.42147900000000        6.89583100000000
H            2.49106600000000        4.02763000000000       11.89598100000000
H            1.87518600000000        1.70232500000000       12.50162100000000
H            0.64192600000000        0.30560800000000       10.87501800000000
H            1.86283200000000        4.93834100000000        9.69383200000000
H            1.23127700000000        4.51360700000000        7.39655400000000
Fe          -5.86953600000000       -5.80455700000000       -2.00955700000000
C           -4.91174800000000      -10.36815400000000       -1.44459100000000
C           -5.90864900000000      -10.23549700000000       -2.40826500000000
C           -6.49692200000000       -8.98870700000000       -2.61608900000000
N           -6.08668700000000       -7.90488600000000       -1.89880800000000
C           -5.10698400000000       -8.01032800000000       -0.93506700000000
C           -4.51975200000000       -9.26041200000000       -0.69351000000000
C           -4.74340300000000       -6.88211800000000       -0.02415200000000
N           -4.48312800000000       -5.65968300000000       -0.42566000000000
H           -4.45418600000000      -11.33293300000000       -1.26756500000000
H           -6.22988200000000      -11.09389700000000       -2.98385300000000
H           -7.28860300000000       -8.88817500000000       -3.34485500000000
H           -3.76353500000000       -9.37679200000000        0.07329300000000
H           -4.61440300000000       -7.13257900000000        1.02359100000000
C           -9.81321300000000       -4.49635300000000        0.21464900000000
C           -9.58595400000000       -5.86081900000000        0.38696600000000
C           -8.38123600000000       -6.41028200000000       -0.04900300000000
N           -7.44607800000000       -5.61852300000000       -0.63778100000000
C           -7.63940700000000       -4.27441100000000       -0.83366300000000
C           -8.84005700000000       -3.69772000000000       -0.38942900000000
C           -6.59969100000000       -3.37039100000000       -1.42746700000000
N           -5.60099700000000       -3.73946800000000       -2.20395600000000
H          -10.74151200000000       -4.05487100000000        0.55487200000000
H          -10.33449900000000       -6.48580300000000        0.85586500000000
H           -8.18719100000000       -7.46619700000000        0.08232600000000
H           -9.02464600000000       -2.63709400000000       -0.50960300000000
H           -6.72922400000000       -2.31414300000000       -1.21129900000000
C           -8.36655600000000       -7.14189800000000       -5.76117500000000
C           -9.22119900000000       -6.65523000000000       -4.77404800000000
C           -8.67925500000000       -6.06708100000000       -3.63261200000000
N           -7.32993100000000       -5.97975800000000       -3.48425500000000
C           -6.45305400000000       -6.46338900000000       -4.43401600000000
C           -6.98377000000000       -7.04000900000000       -5.60003900000000
C           -4.94958900000000       -6.33269100000000       -4.34566700000000
N           -4.21644100000000       -6.25531500000000       -3.24726800000000
H           -8.77534600000000       -7.59467200000000       -6.65519700000000
H          -10.29412700000000       -6.72736300000000       -4.89518200000000
H           -9.33347100000000       -5.67743600000000       -2.86560000000000
H           -6.33164700000000       -7.41747800000000       -6.37825700000000
H           -4.45617000000000       -6.30744800000000       -5.30867800000000
Fe           7.19775000000000       -2.84920400000000       -2.22711900000000
C           11.12512400000000       -0.22452600000000       -1.74991900000000
C           11.35912000000000       -1.29981200000000       -2.60288900000000
C           10.34316900000000       -2.22599100000000       -2.82687700000000
N            9.13365000000000       -2.07645600000000       -2.22001700000000
C            8.86446600000000       -1.02392300000000       -1.37037300000000
C            9.88322900000000       -0.08438800000000       -1.13131400000000
C            7.54938000000000       -0.80515600000000       -0.65049800000000
N            6.41728100000000       -1.45771000000000       -0.83197100000000
H           11.90707600000000        0.50230500000000       -1.56696900000000
H           12.32061200000000       -1.41494000000000       -3.08588000000000
H           10.51920100000000       -3.06378800000000       -3.48614300000000
H            9.71879900000000        0.75906600000000       -0.47130000000000
H            7.56556200000000       -0.01052400000000        0.09041100000000
C            7.97922700000000       -6.60107300000000        0.45302900000000
C            9.00934700000000       -5.67341500000000        0.59458400000000
C            8.86939100000000       -4.40953800000000        0.02406400000000
N            7.74190700000000       -4.09650400000000       -0.66875700000000
C            6.70951600000000       -4.98180200000000       -0.83208700000000
C            6.82582100000000       -6.25840300000000       -0.25521600000000
C            5.44829600000000       -4.65989800000000       -1.58233200000000
N            5.20764400000000       -3.59728100000000       -2.32791600000000
H            8.07338200000000       -7.58576800000000        0.89105000000000
H            9.90661700000000       -5.93061800000000        1.14152300000000
H            9.65890100000000       -3.67762700000000        0.12729000000000
H            6.03305500000000       -6.98903000000000       -0.35738400000000
H            4.66195000000000       -5.40330200000000       -1.47310400000000
C            9.02648600000000       -5.15188000000000       -5.91366200000000
C            9.28604500000000       -5.86779000000000       -4.74598100000000
C            8.77325600000000       -5.40664400000000       -3.53497400000000
N            8.03311100000000       -4.26615300000000       -3.49709500000000
C            7.77039000000000       -3.52369400000000       -4.63202700000000
C            8.26229500000000       -3.98499100000000       -5.86265100000000
C            6.89631200000000       -2.29307200000000       -4.64559300000000
N            6.84723100000000       -1.38657300000000       -3.69168800000000
H            9.41292200000000       -5.50468300000000       -6.86102700000000
H            9.87619000000000       -6.77426900000000       -4.77973200000000
H            8.96260800000000       -5.95743700000000       -2.62378000000000
H            8.05863400000000       -3.44293200000000       -6.77792100000000
H            6.32844100000000       -2.12688000000000       -5.55380800000000
Fe          -1.34004300000000        6.68727500000000       -4.64213600000000
C           -5.96062200000000        7.37605600000000       -4.40090000000000
C           -5.52543600000000        7.46144800000000       -5.72087400000000
C           -4.20680700000000        7.12837600000000       -6.02463400000000
N           -3.35648600000000        6.72969200000000       -5.03891300000000
C           -3.75081600000000        6.63313700000000       -3.73002400000000
C           -5.07950900000000        6.95715900000000       -3.40373900000000
C           -2.86051000000000        6.14781900000000       -2.62321600000000
N           -1.54162300000000        6.04525000000000       -2.62448200000000
H           -6.98322500000000        7.62843600000000       -4.14985800000000
H           -6.20334200000000        7.78067800000000       -6.50152600000000
H           -3.86067200000000        7.18446500000000       -7.04739900000000
H           -5.43442800000000        6.88852900000000       -2.38251800000000
H           -3.39753800000000        5.89701800000000       -1.71174400000000
C           -0.52570700000000       11.21917800000000       -3.59535100000000
C           -1.87718300000000       11.00799900000000       -3.86209900000000
C           -2.33660200000000        9.70913500000000       -4.07104500000000
N           -1.47026800000000        8.66147400000000       -4.02004800000000
C           -0.12232500000000        8.83596000000000       -3.77240400000000
C            0.35328600000000       10.13635100000000       -3.54303000000000
C            0.86668600000000        7.70159800000000       -3.65353400000000
N            0.76482500000000        6.55773000000000       -4.28734100000000
H           -0.15821500000000       12.22241500000000       -3.42634800000000
H           -2.56420000000000       11.84352400000000       -3.90140000000000
H           -3.38434600000000        9.53440800000000       -4.27212200000000
H            1.40026100000000       10.31383200000000       -3.32870700000000
H            1.74681500000000        7.89006500000000       -3.05001200000000
C            0.25585000000000        7.22225400000000       -8.92235100000000
C           -0.01235300000000        8.47682700000000       -8.37622900000000
C           -0.75163600000000        8.56356100000000       -7.19765600000000
N           -1.19399300000000        7.43304100000000       -6.58534700000000
C           -0.92921200000000        6.17716400000000       -7.08534600000000
C           -0.21000900000000        6.07069300000000       -8.28611400000000
C           -1.45257700000000        4.90685300000000       -6.46749400000000
N           -1.49628700000000        4.63871900000000       -5.17606300000000
H            0.82034900000000        7.14160500000000       -9.84218700000000
H            0.34365600000000        9.37371600000000       -8.86562500000000
H           -0.97648900000000        9.53134900000000       -6.77033700000000
H           -0.00255000000000        5.10131100000000       -8.72286700000000
H           -1.68964500000000        4.11606700000000       -7.17216500000000
C           -3.38711200000000       -1.94708900000000        4.83222500000000
C           -3.11351100000000       -0.98018300000000        5.79858600000000
C           -2.58896600000000        0.26417400000000        5.42373100000000
C           -2.33419100000000        0.52769200000000        4.07207600000000
C           -2.61455300000000       -0.43769200000000        3.10006800000000
C           -3.15065800000000       -1.68295400000000        3.47163800000000
C           -3.49236800000000       -2.69676100000000        2.44842600000000
C           -4.69225000000000       -3.41964200000000        2.55317300000000
C           -5.01677700000000       -4.38957200000000        1.60786100000000
C           -4.15505100000000       -4.64677100000000        0.53237200000000
C           -2.96147000000000       -3.92534800000000        0.41555600000000
C           -2.62941100000000       -2.95541400000000        1.36804900000000
H           -3.77886500000000       -2.90549100000000        5.14939500000000
H           -3.30360900000000       -1.20177600000000        6.84122300000000
H           -1.91623000000000        1.47530500000000        3.76900500000000
H           -2.42830400000000       -0.20448100000000        2.05902100000000
H           -5.38619500000000       -3.22656600000000        3.36182700000000
H           -5.94573500000000       -4.93582100000000        1.70792300000000
H           -2.29007200000000       -4.11093400000000       -0.41078300000000
H           -1.69406500000000       -2.41928500000000        1.26820700000000
C            1.28903800000000       -0.68838600000000        3.16382400000000
C            0.60018300000000       -0.51014600000000        4.35250800000000
C            0.99885600000000        0.47331800000000        5.27610600000000
C            2.06696300000000        1.31653200000000        4.96032200000000
C            2.77375500000000        1.13067300000000        3.76595300000000
C            2.41628200000000        0.09060000000000        2.88566500000000
C            3.31590400000000       -0.31351300000000        1.79143800000000
C            3.89669400000000        0.64194300000000        0.94778100000000
C            4.86573900000000        0.25508800000000        0.02241600000000
C            5.27155200000000       -1.08917500000000       -0.06117400000000
C            4.65733100000000       -2.04832400000000        0.74499600000000
C            3.68097400000000       -1.66621200000000        1.66044600000000
H            0.98607500000000       -1.48568200000000        2.49557500000000
H           -0.20903300000000       -1.18920700000000        4.58612400000000
H            2.40938200000000        2.04858700000000        5.67932100000000
H            3.65300300000000        1.73350500000000        3.57700800000000
H            3.62704600000000        1.68830800000000        1.02920800000000
H            5.34190000000000        1.01093400000000       -0.58669600000000
H            4.98007800000000       -3.07979800000000        0.71110400000000
H            3.26141000000000       -2.41952300000000        2.31603100000000
C           -1.77769300000000        4.30828500000000        3.48658200000000
C           -1.73698100000000        3.98088900000000        4.85163100000000
C           -0.51558500000000        3.93252200000000        5.53746600000000
C            0.66028800000000        4.28636300000000        4.83034700000000
C            0.61609300000000        4.63384000000000        3.47903500000000
C           -0.59662500000000        4.61980800000000        2.78543600000000
C           -0.62480700000000        4.88835600000000        1.32565800000000
C           -0.04158500000000        6.05078700000000        0.78530600000000
C           -0.21998500000000        6.37256900000000       -0.57035200000000
C           -0.96328600000000        5.52628200000000       -1.40764800000000
C           -1.43830200000000        4.30664000000000       -0.88407300000000
C           -1.28029700000000        3.99648800000000        0.46676300000000
H           -2.73193700000000        4.30614100000000        2.97343100000000
H           -2.65783600000000        3.73731100000000        5.36295600000000
H            1.63482900000000        4.24820500000000        5.29251900000000
H            1.53943200000000        4.86336600000000        2.96128900000000
H            0.47660500000000        6.75037400000000        1.42994700000000
H            0.12482500000000        7.33100500000000       -0.93510900000000
H           -2.04908200000000        3.65521400000000       -1.49388400000000
H           -1.71849100000000        3.08403400000000        0.85361500000000
C           -0.63256300000000       -5.69351700000000       -2.24565800000000
C           -1.94422700000000       -6.19615400000000       -2.26507600000000
C           -2.81731500000000       -5.87222900000000       -3.31420300000000
C           -2.32207300000000       -5.06468900000000       -4.36874700000000
C           -1.01261900000000       -4.58142300000000       -4.35682100000000
C           -0.16492300000000       -4.87438700000000       -3.28820900000000
C            1.20369600000000       -4.31800800000000       -3.25632600000000
C            2.20628000000000       -4.84835500000000       -4.08274400000000
C            3.54216700000000       -4.46563200000000       -3.90358000000000
C            3.89039100000000       -3.53901800000000       -2.90421500000000
C            2.86333200000000       -2.90190500000000       -2.18868900000000
C            1.53144900000000       -3.30109000000000       -2.34841000000000
H            0.01717300000000       -5.93876300000000       -1.41476700000000
H           -2.28012700000000       -6.82239600000000       -1.45069800000000
H           -2.95104800000000       -4.75384400000000       -5.18880100000000
H           -0.67111400000000       -3.94751400000000       -5.16613800000000
H            1.96763800000000       -5.62464700000000       -4.80024400000000
H            4.31944200000000       -4.98527900000000       -4.45058800000000
H            3.09973400000000       -2.18485400000000       -1.41993500000000
H            0.76567200000000       -2.86375400000000       -1.71933000000000
C           -3.38260700000000       -0.74447100000000       -2.17975300000000
C           -4.12881300000000       -1.82733700000000       -1.73266800000000
C           -4.66360700000000       -2.75293200000000       -2.64533800000000
C           -4.40771900000000       -2.60119200000000       -4.01005900000000
C           -3.67991900000000       -1.49879800000000       -4.46497700000000
C           -3.19592100000000       -0.54486500000000       -3.55179000000000
C           -2.70090200000000        0.75740900000000       -4.01964700000000
C           -1.53815800000000        1.32862300000000       -3.47430400000000
C           -1.15548300000000        2.62148800000000       -3.83987300000000
C           -1.94047300000000        3.35635900000000       -4.73407700000000
C           -3.10973200000000        2.79208600000000       -5.26487800000000
C           -3.48189700000000        1.49885400000000       -4.91724500000000
H           -3.04210600000000       -0.00812700000000       -1.46101900000000
H           -4.35762000000000       -1.89940600000000       -0.67883200000000
H           -4.84395500000000       -3.28778300000000       -4.72436000000000
H           -3.55061000000000       -1.35317900000000       -5.53046400000000
H           -0.93161100000000        0.77438100000000       -2.76938200000000
H           -0.24375100000000        3.04674900000000       -3.43796800000000
H           -3.73055200000000        3.35620900000000       -5.94991800000000
H           -4.40124100000000        1.09089000000000       -5.31895600000000
C            3.82826800000000        0.76049800000000       -4.34081300000000
C            4.67257500000000       -0.35239200000000       -4.29705400000000
C            5.96607200000000       -0.24825500000000       -3.75365900000000
C            6.38528500000000        0.98383000000000       -3.23450500000000
C            5.53868600000000        2.09994900000000       -3.27522000000000
C            4.25404600000000        2.00251400000000       -3.83894600000000
C            3.37116400000000        3.19498800000000       -3.93769500000000
C            3.23203100000000        4.08789100000000       -2.86015000000000
C            2.39217500000000        5.20539300000000       -2.96520300000000
C            1.68504300000000        5.45683100000000       -4.15707100000000
C            1.82960300000000        4.56719100000000       -5.22743900000000
C            2.65948900000000        3.44898100000000       -5.12203300000000
H            2.83618200000000        0.64775300000000       -4.75971900000000
H            4.30782900000000       -1.29683600000000       -4.67789800000000
H            7.37723800000000        1.08677400000000       -2.81487400000000
H            5.89805600000000        3.04557300000000       -2.88920200000000
H            3.75243900000000        3.90631200000000       -1.92788100000000
H            2.27705900000000        5.85099700000000       -2.10593400000000
H            1.30894900000000        4.74451900000000       -6.15593800000000
H            2.75859600000000        2.79021900000000       -5.97538300000000
280
 energy: -49.034449862045 gnorm: 0.178915770708 xtb: 6.7.1 (edcfbbe)
Fe          -0.85574131224652        1.59614790605142        7.87414385857555
C           -4.15172210901483        4.53250342035097        9.48739299024124
C           -3.05656555467954        4.55752540823977       10.34214265691833
C           -2.02267706432695        3.65711102326868       10.14683757985256
N           -2.06163978816409        2.76822823403154        9.11675263893485
C           -3.14129914519030        2.70795216581817        8.26724548462799
C           -4.20544060140139        3.60451676945727        8.46653307634191
C           -3.29075871179391        1.67121233679643        7.23533522216463
N           -2.32250137460011        1.25850681192406        6.43336328095065
H           -4.96960089762001        5.22680054886069        9.63368215447607
H           -3.01974271716863        5.27166993109360       11.15668925237576
H           -1.18266625948968        3.66191183406862       10.82533717836715
H           -5.06889529749214        3.57461784020189        7.81935899509681
H           -4.29071792716231        1.28082012457972        7.07936773835850
C           -0.86601963058996       -2.31321058039190       10.39525385172656
C           -1.91027294597261       -1.48029462795295       10.78324533831711
C           -2.21006320228312       -0.36772470213489       10.01469402094552
N           -1.48279651201863       -0.08527467446695        8.90249137225115
C           -0.45043097563688       -0.88564867240661        8.48867502190654
C           -0.14591499016574       -2.02923269689374        9.24998324961197
C            0.28000849738772       -0.65045726919095        7.24361298114625
N            0.39140121757816        0.49875824624727        6.59433092031021
H           -0.62412114434601       -3.18819631671295       10.98553772576699
H           -2.48213175246589       -1.70434964031500       11.67571527380559
H           -3.02375024436031        0.28197624141926       10.30243687051417
H            0.65741463606212       -2.68575014579074        8.95123400874036
H            0.74683951879279       -1.52895821575633        6.81248571796774
C            1.93601551813102        3.40908075654770       11.18031365670411
C            1.59042058052419        2.10542707469039       11.51476210203945
C            0.89278610279664        1.33473643885373       10.59999742904268
N            0.53596530282797        1.84759183339954        9.39031673794143
C            0.85889749849504        3.13571995810928        9.02752553130410
C            1.58585520983188        3.91980040237407        9.94492056744557
C            0.55356062082955        3.71957208157679        7.70771001982898
N           -0.44034619931673        3.39233874166948        6.89008809714976
H            2.48566258241798        4.02075699346837       11.88580788585113
H            1.86829112998400        1.70015576930337       12.48118473362647
H            0.63078101937541        0.31889225373244       10.85527035686582
H            1.86339195652824        4.93299263848416        9.69600991469843
H            1.22592161450314        4.51254192517461        7.40820976029532
Fe          -5.86772575872982       -5.81334891225412       -2.00609617617818
C           -4.91479789043120      -10.35686794004346       -1.44194846717463
C           -5.90954952887845      -10.21686244814003       -2.40250616072345
C           -6.48490272246155       -8.97388820670679       -2.60777043301441
N           -6.06727194972776       -7.89083017996608       -1.89767684514513
C           -5.10298788020060       -8.00598357702536       -0.92512698440970
C           -4.52451810447390       -9.26512571608417       -0.69270413708610
C           -4.74575570587347       -6.89613735475660       -0.03147659588040
N           -4.50956891842869       -5.65723878039775       -0.43071476052010
H           -4.46138650040015      -11.32454237213408       -1.26819515140605
H           -6.23359036520688      -11.07630072091938       -2.97751232661769
H           -7.27481647657920       -8.87003719161198       -3.33699821868927
H           -3.76946014471784       -9.38285759543079        0.06971499862517
H           -4.60355124906907       -7.14005175211364        1.01571698683293
C           -9.79864493797425       -4.49667495786086        0.20800547400695
C           -9.56675126427675       -5.85725455178727        0.37717935326178
C           -8.37053079434993       -6.39943653651984       -0.06305413677200
N           -7.43928915233957       -5.61288576451577       -0.66340264907882
C           -7.63208194299058       -4.26750464265378       -0.84182613176865
C           -8.83719806386980       -3.70148969420386       -0.38722353830747
C           -6.61676880565466       -3.38749312496757       -1.42222047968633
N           -5.60631862284224       -3.75744751445488       -2.19276674079437
H          -10.72855670625600       -4.05969948025626        0.55099410574646
H          -10.31549889748550       -6.48236070183093        0.84933200285188
H           -8.17785674024910       -7.45432273603963        0.06738360620890
H           -9.02453080217991       -2.64510447134606       -0.50799715619404
H           -6.73680561962064       -2.33104401988043       -1.21311102591573
C           -8.35373173292784       -7.13690794219143       -5.75175698559304
C           -9.20118111783482       -6.64946960822850       -4.76368144747722
C           -8.65557230082961       -6.07039228889800       -3.63017857390732
N           -7.30587768360332       -5.98925843708809       -3.47751026665360
C           -6.43594858480966       -6.46144244923388       -4.43421887384543
C           -6.98329373392723       -7.03598601928787       -5.59829757316898
C           -4.96882278443403       -6.32873980496839       -4.34583675619591
N           -4.23270669003982       -6.22065310158419       -3.24556408029106
H           -8.76855471058644       -7.58821460609473       -6.64522419959755
H          -10.27619890672361       -6.72015321977033       -4.88554327158669
H           -9.30900046766500       -5.68223701175909       -2.86270752891783
H           -6.33637120854364       -7.41462390773095       -6.37543588979741
H           -4.46627159407993       -6.31626039783799       -5.30433456204465
Fe           7.19885286389660       -2.84124956620690       -2.21519615230099
C           11.11058286010522       -0.23050420668590       -1.74760921491526
C           11.33772677810573       -1.30556761796867       -2.59747587507171
C           10.32198137956851       -2.22022506244173       -2.81606337796674
N            9.11216806680634       -2.06803745051143       -2.21091200602367
C            8.85168040621050       -1.01813114336287       -1.36237446624548
C            9.88207640722590       -0.08668575050950       -1.13180156185495
C            7.57303213000764       -0.80692611231491       -0.66593243523679
N            6.43749626853745       -1.46403582065071       -0.84129393603293
H           11.89708097771470        0.49292237961111       -1.56766754064125
H           12.30104838949595       -1.42206358434268       -3.08121065712590
H           10.49591521425100       -3.05807471479459       -3.47505668218697
H            9.72180877978260        0.75396135538150       -0.47385859482066
H            7.57781827454244       -0.01905694883524        0.07761841967538
C            7.97266090475929       -6.59007355297234        0.44499294471941
C            8.99774267312572       -5.66107880879871        0.58373929046211
C            8.85706733706542       -4.40878105317174        0.01040541549007
N            7.73592915479744       -4.09708266694951       -0.69030654467361
C            6.70234191611384       -4.98215077293855       -0.84165595408246
C            6.82799966220885       -6.25489864950051       -0.25381598045727
C            5.47366713831249       -4.66589308598038       -1.56977666680353
N            5.22883956701265       -3.60401323741251       -2.32208607830934